 VARIABLES= "X","Y","Z","yita"                                                                                                                                                                                                                                                                                                                                                                                                                                                                                                  
ZONE N=                                       11856 E=                             2964 F=FEPOINT, ET=QUADRILATERAL                                                                                                                                                                                                                                                                                                                                                                                                             
       344.54530      -303.96600         0.44778         0.44778
       344.54530      -287.96779         0.44778         0.44778
       331.54182      -287.96779         0.44778         0.44778
       331.54182      -303.96600         0.44778         0.44778
       344.54530      -287.96779         0.44778         0.44778
       344.54530      -271.96958        -1.23682        -1.23682
       331.54182      -271.96958        -1.23682        -1.23682
       331.54182      -287.96779         0.44778         0.44778
       344.54530      -271.96958        -1.23682        -1.23682
       344.54530      -255.97137        -1.97042        -1.97042
       331.54182      -255.97137        -1.97042        -1.97042
       331.54182      -271.96958        -1.23682        -1.23682
       344.54530      -255.97137        -1.97042        -1.97042
       344.54530      -239.97316        -1.61956        -1.61956
       331.54182      -239.97316        -1.61956        -1.61956
       331.54182      -255.97137        -1.97042        -1.97042
       344.54530      -239.97316        -1.61956        -1.61956
       344.54530      -223.97495        -1.30330        -1.30330
       331.54182      -223.97495        -1.30330        -1.30330
       331.54182      -239.97316        -1.61956        -1.61956
       344.54530      -223.97495        -1.30330        -1.30330
       344.54530      -207.97674        -0.92070        -0.92070
       331.54182      -207.97674        -0.92070        -0.92070
       331.54182      -223.97495        -1.30330        -1.30330
       344.54530      -207.97674        -0.92070        -0.92070
       344.54530      -191.97853        -0.30406        -0.30406
       331.54182      -191.97853        -0.30406        -0.30406
       331.54182      -207.97674        -0.92070        -0.92070
       344.54530      -191.97853        -0.30406        -0.30406
       344.54530      -175.98032        -0.76516        -0.76516
       331.54182      -175.98032        -0.76516        -0.76516
       331.54182      -191.97853        -0.30406        -0.30406
       344.54530      -175.98032        -0.76516        -0.76516
       344.54530      -159.98210        -1.79028        -1.79028
       331.54182      -159.98210        -1.79028        -1.79028
       331.54182      -175.98032        -0.76516        -0.76516
       344.54530      -159.98210        -1.79028        -1.79028
       344.54530      -143.98389        -1.89396        -1.89396
       331.54182      -143.98389        -1.89396        -1.89396
       331.54182      -159.98210        -1.79028        -1.79028
       344.54530      -143.98389        -1.89396        -1.89396
       344.54530      -127.98568        -1.62548        -1.62548
       331.54182      -127.98568        -1.62548        -1.62548
       331.54182      -143.98389        -1.89396        -1.89396
       344.54530      -127.98568        -1.62548        -1.62548
       344.54530      -111.98747        -1.45942        -1.45942
       331.54182      -111.98747        -1.45942        -1.45942
       331.54182      -127.98568        -1.62548        -1.62548
       344.54530      -111.98747        -1.45942        -1.45942
       344.54530       -95.98926        -1.00773        -1.00773
       331.54182       -95.98926        -1.00773        -1.00773
       331.54182      -111.98747        -1.45942        -1.45942
       344.54530       -95.98926        -1.00773        -1.00773
       344.54530       -79.99105        -0.60289        -0.60289
       331.54182       -79.99105        -0.60289        -0.60289
       331.54182       -95.98926        -1.00773        -1.00773
       344.54530       -79.99105        -0.60289        -0.60289
       344.54530       -63.99284        -0.70112        -0.70112
       331.54182       -63.99284        -0.70112        -0.70112
       331.54182       -79.99105        -0.60289        -0.60289
       344.54530       -63.99284        -0.70112        -0.70112
       344.54530       -47.99463        -1.25468        -1.25468
       331.54182       -47.99463        -1.25468        -1.25468
       331.54182       -63.99284        -0.70112        -0.70112
       344.54530       -47.99463        -1.25468        -1.25468
       344.54530       -31.99642        -1.81915        -1.81915
       331.54182       -31.99642        -1.81915        -1.81915
       331.54182       -47.99463        -1.25468        -1.25468
       344.54530       -31.99642        -1.81915        -1.81915
       344.54530       -15.99821        -1.79715        -1.79715
       331.54182       -15.99821        -1.79715        -1.79715
       331.54182       -31.99642        -1.81915        -1.81915
       344.54530       -15.99821        -1.79715        -1.79715
       344.54530         0.00000        -1.42459        -1.42459
       331.54182         0.00000        -1.42459        -1.42459
       331.54182       -15.99821        -1.79715        -1.79715
       344.54530         0.00000        -1.42459        -1.42459
       344.54530        15.99821        -1.18231        -1.18231
       331.54182        15.99821        -1.18231        -1.18231
       331.54182         0.00000        -1.42459        -1.42459
       344.54530        15.99821        -1.18231        -1.18231
       344.54530        31.99642        -0.51058        -0.51058
       331.54182        31.99642        -0.51058        -0.51058
       331.54182        15.99821        -1.18231        -1.18231
       344.54530        31.99642        -0.51058        -0.51058
       344.54530        47.99463         0.53810         0.53810
       331.54182        47.99463         0.53810         0.53810
       331.54182        31.99642        -0.51058        -0.51058
       344.54530        47.99463         0.53810         0.53810
       344.54530        63.99284         0.56041         0.56041
       331.54182        63.99284         0.56041         0.56041
       331.54182        47.99463         0.53810         0.53810
       344.54530        63.99284         0.56041         0.56041
       344.54530        79.99105        -0.60427        -0.60427
       331.54182        79.99105        -0.60427        -0.60427
       331.54182        63.99284         0.56041         0.56041
       344.54530        79.99105        -0.60427        -0.60427
       344.54530        95.98926        -1.72201        -1.72201
       331.54182        95.98926        -1.72201        -1.72201
       331.54182        79.99105        -0.60427        -0.60427
       344.54530        95.98926        -1.72201        -1.72201
       344.54530       111.98747        -2.16260        -2.16260
       331.54182       111.98747        -2.16260        -2.16260
       331.54182        95.98926        -1.72201        -1.72201
       344.54530       111.98747        -2.16260        -2.16260
       344.54530       127.98568        -2.06547        -2.06547
       331.54182       127.98568        -2.06547        -2.06547
       331.54182       111.98747        -2.16260        -2.16260
       344.54530       127.98568        -2.06547        -2.06547
       344.54530       143.98389        -1.91931        -1.91931
       331.54182       143.98389        -1.91931        -1.91931
       331.54182       127.98568        -2.06547        -2.06547
       344.54530       143.98389        -1.91931        -1.91931
       344.54530       159.98210        -1.69984        -1.69984
       331.54182       159.98210        -1.69984        -1.69984
       331.54182       143.98389        -1.91931        -1.91931
       344.54530       159.98210        -1.69984        -1.69984
       344.54530       175.98032        -0.96332        -0.96332
       331.54182       175.98032        -0.96332        -0.96332
       331.54182       159.98210        -1.69984        -1.69984
       344.54530       175.98032        -0.96332        -0.96332
       344.54530       191.97853        -0.25465        -0.25465
       331.54182       191.97853        -0.25465        -0.25465
       331.54182       175.98032        -0.96332        -0.96332
       344.54530       191.97853        -0.25465        -0.25465
       344.54530       207.97674         0.07981         0.07981
       331.54182       207.97674         0.07981         0.07981
       331.54182       191.97853        -0.25465        -0.25465
       344.54530       207.97674         0.07981         0.07981
       344.54530       223.97495         0.43343         0.43343
       331.54182       223.97495         0.43343         0.43343
       331.54182       207.97674         0.07981         0.07981
       344.54530       223.97495         0.43343         0.43343
       344.54530       239.97316         0.35373         0.35373
       331.54182       239.97316         0.35373         0.35373
       331.54182       223.97495         0.43343         0.43343
       344.54530       239.97316         0.35373         0.35373
       344.54530       255.97137        -0.41859        -0.41859
       331.54182       255.97137        -0.41859        -0.41859
       331.54182       239.97316         0.35373         0.35373
       344.54530       255.97137        -0.41859        -0.41859
       344.54530       271.96958        -1.35556        -1.35556
       331.54182       271.96958        -1.35556        -1.35556
       331.54182       255.97137        -0.41859        -0.41859
       344.54530       271.96958        -1.35556        -1.35556
       344.54530       287.96779        -1.84316        -1.84316
       331.54182       287.96779        -1.84316        -1.84316
       331.54182       271.96958        -1.35556        -1.35556
       344.54530       287.96779        -1.84316        -1.84316
       344.54530       303.96600        -1.84316        -1.84316
       331.54182       303.96600        -1.84316        -1.84316
       331.54182       287.96779        -1.84316        -1.84316
       331.54182      -303.96600         0.44778         0.44778
       331.54182      -287.96779         0.44778         0.44778
       318.53833      -287.96779         0.20495         0.20495
       318.53833      -303.96600         0.20495         0.20495
       331.54182      -287.96779         0.44778         0.44778
       331.54182      -271.96958        -1.23682        -1.23682
       318.53833      -271.96958        -0.32344        -0.32344
       318.53833      -287.96779         0.20495         0.20495
       331.54182      -271.96958        -1.23682        -1.23682
       331.54182      -255.97137        -1.97042        -1.97042
       318.53833      -255.97137        -0.64426        -0.64426
       318.53833      -271.96958        -0.32344        -0.32344
       331.54182      -255.97137        -1.97042        -1.97042
       331.54182      -239.97316        -1.61956        -1.61956
       318.53833      -239.97316        -0.23947        -0.23947
       318.53833      -255.97137        -0.64426        -0.64426
       331.54182      -239.97316        -1.61956        -1.61956
       331.54182      -223.97495        -1.30330        -1.30330
       318.53833      -223.97495         0.15468         0.15468
       318.53833      -239.97316        -0.23947        -0.23947
       331.54182      -223.97495        -1.30330        -1.30330
       331.54182      -207.97674        -0.92070        -0.92070
       318.53833      -207.97674        -0.08178        -0.08178
       318.53833      -223.97495         0.15468         0.15468
       331.54182      -207.97674        -0.92070        -0.92070
       331.54182      -191.97853        -0.30406        -0.30406
       318.53833      -191.97853        -0.15547        -0.15547
       318.53833      -207.97674        -0.08178        -0.08178
       331.54182      -191.97853        -0.30406        -0.30406
       331.54182      -175.98032        -0.76516        -0.76516
       318.53833      -175.98032        -0.41728        -0.41728
       318.53833      -191.97853        -0.15547        -0.15547
       331.54182      -175.98032        -0.76516        -0.76516
       331.54182      -159.98210        -1.79028        -1.79028
       318.53833      -159.98210        -1.11462        -1.11462
       318.53833      -175.98032        -0.41728        -0.41728
       331.54182      -159.98210        -1.79028        -1.79028
       331.54182      -143.98389        -1.89396        -1.89396
       318.53833      -143.98389        -0.80607        -0.80607
       318.53833      -159.98210        -1.11462        -1.11462
       331.54182      -143.98389        -1.89396        -1.89396
       331.54182      -127.98568        -1.62548        -1.62548
       318.53833      -127.98568         0.20151         0.20151
       318.53833      -143.98389        -0.80607        -0.80607
       331.54182      -127.98568        -1.62548        -1.62548
       331.54182      -111.98747        -1.45942        -1.45942
       318.53833      -111.98747         0.35525         0.35525
       318.53833      -127.98568         0.20151         0.20151
       331.54182      -111.98747        -1.45942        -1.45942
       331.54182       -95.98926        -1.00773        -1.00773
       318.53833       -95.98926        -0.08878        -0.08878
       318.53833      -111.98747         0.35525         0.35525
       331.54182       -95.98926        -1.00773        -1.00773
       331.54182       -79.99105        -0.60289        -0.60289
       318.53833       -79.99105        -0.42266        -0.42266
       318.53833       -95.98926        -0.08878        -0.08878
       331.54182       -79.99105        -0.60289        -0.60289
       331.54182       -63.99284        -0.70112        -0.70112
       318.53833       -63.99284        -0.77928        -0.77928
       318.53833       -79.99105        -0.42266        -0.42266
       331.54182       -63.99284        -0.70112        -0.70112
       331.54182       -47.99463        -1.25468        -1.25468
       318.53833       -47.99463        -1.44376        -1.44376
       318.53833       -63.99284        -0.77928        -0.77928
       331.54182       -47.99463        -1.25468        -1.25468
       331.54182       -31.99642        -1.81915        -1.81915
       318.53833       -31.99642        -2.38536        -2.38536
       318.53833       -47.99463        -1.44376        -1.44376
       331.54182       -31.99642        -1.81915        -1.81915
       331.54182       -15.99821        -1.79715        -1.79715
       318.53833       -15.99821        -2.86502        -2.86502
       318.53833       -31.99642        -2.38536        -2.38536
       331.54182       -15.99821        -1.79715        -1.79715
       331.54182         0.00000        -1.42459        -1.42459
       318.53833         0.00000        -2.36549        -2.36549
       318.53833       -15.99821        -2.86502        -2.86502
       331.54182         0.00000        -1.42459        -1.42459
       331.54182        15.99821        -1.18231        -1.18231
       318.53833        15.99821        -1.57054        -1.57054
       318.53833         0.00000        -2.36549        -2.36549
       331.54182        15.99821        -1.18231        -1.18231
       331.54182        31.99642        -0.51058        -0.51058
       318.53833        31.99642        -0.87024        -0.87024
       318.53833        15.99821        -1.57054        -1.57054
       331.54182        31.99642        -0.51058        -0.51058
       331.54182        47.99463         0.53810         0.53810
       318.53833        47.99463         0.01020         0.01020
       318.53833        31.99642        -0.87024        -0.87024
       331.54182        47.99463         0.53810         0.53810
       331.54182        63.99284         0.56041         0.56041
       318.53833        63.99284         0.39105         0.39105
       318.53833        47.99463         0.01020         0.01020
       331.54182        63.99284         0.56041         0.56041
       331.54182        79.99105        -0.60427        -0.60427
       318.53833        79.99105        -0.26260        -0.26260
       318.53833        63.99284         0.39105         0.39105
       331.54182        79.99105        -0.60427        -0.60427
       331.54182        95.98926        -1.72201        -1.72201
       318.53833        95.98926        -1.03712        -1.03712
       318.53833        79.99105        -0.26260        -0.26260
       331.54182        95.98926        -1.72201        -1.72201
       331.54182       111.98747        -2.16260        -2.16260
       318.53833       111.98747        -1.31012        -1.31012
       318.53833        95.98926        -1.03712        -1.03712
       331.54182       111.98747        -2.16260        -2.16260
       331.54182       127.98568        -2.06547        -2.06547
       318.53833       127.98568        -1.35648        -1.35648
       318.53833       111.98747        -1.31012        -1.31012
       331.54182       127.98568        -2.06547        -2.06547
       331.54182       143.98389        -1.91931        -1.91931
       318.53833       143.98389        -1.54443        -1.54443
       318.53833       127.98568        -1.35648        -1.35648
       331.54182       143.98389        -1.91931        -1.91931
       331.54182       159.98210        -1.69984        -1.69984
       318.53833       159.98210        -1.87528        -1.87528
       318.53833       143.98389        -1.54443        -1.54443
       331.54182       159.98210        -1.69984        -1.69984
       331.54182       175.98032        -0.96332        -0.96332
       318.53833       175.98032        -1.66207        -1.66207
       318.53833       159.98210        -1.87528        -1.87528
       331.54182       175.98032        -0.96332        -0.96332
       331.54182       191.97853        -0.25465        -0.25465
       318.53833       191.97853        -0.91627        -0.91627
       318.53833       175.98032        -1.66207        -1.66207
       331.54182       191.97853        -0.25465        -0.25465
       331.54182       207.97674         0.07981         0.07981
       318.53833       207.97674        -0.41767        -0.41767
       318.53833       191.97853        -0.91627        -0.91627
       331.54182       207.97674         0.07981         0.07981
       331.54182       223.97495         0.43343         0.43343
       318.53833       223.97495         0.03371         0.03371
       318.53833       207.97674        -0.41767        -0.41767
       331.54182       223.97495         0.43343         0.43343
       331.54182       239.97316         0.35373         0.35373
       318.53833       239.97316         0.40317         0.40317
       318.53833       223.97495         0.03371         0.03371
       331.54182       239.97316         0.35373         0.35373
       331.54182       255.97137        -0.41859        -0.41859
       318.53833       255.97137        -0.01414        -0.01414
       318.53833       239.97316         0.40317         0.40317
       331.54182       255.97137        -0.41859        -0.41859
       331.54182       271.96958        -1.35556        -1.35556
       318.53833       271.96958        -1.00937        -1.00937
       318.53833       255.97137        -0.01414        -0.01414
       331.54182       271.96958        -1.35556        -1.35556
       331.54182       287.96779        -1.84316        -1.84316
       318.53833       287.96779        -1.95539        -1.95539
       318.53833       271.96958        -1.00937        -1.00937
       331.54182       287.96779        -1.84316        -1.84316
       331.54182       303.96600        -1.84316        -1.84316
       318.53833       303.96600        -1.95539        -1.95539
       318.53833       287.96779        -1.95539        -1.95539
       318.53833      -303.96600         0.20495         0.20495
       318.53833      -287.96779         0.20495         0.20495
       305.53485      -287.96779         0.11280         0.11280
       305.53485      -303.96600         0.11280         0.11280
       318.53833      -287.96779         0.20495         0.20495
       318.53833      -271.96958        -0.32344        -0.32344
       305.53485      -271.96958        -0.01715        -0.01715
       305.53485      -287.96779         0.11280         0.11280
       318.53833      -271.96958        -0.32344        -0.32344
       318.53833      -255.97137        -0.64426        -0.64426
       305.53485      -255.97137        -0.34675        -0.34675
       305.53485      -271.96958        -0.01715        -0.01715
       318.53833      -255.97137        -0.64426        -0.64426
       318.53833      -239.97316        -0.23947        -0.23947
       305.53485      -239.97316        -0.11354        -0.11354
       305.53485      -255.97137        -0.34675        -0.34675
       318.53833      -239.97316        -0.23947        -0.23947
       318.53833      -223.97495         0.15468         0.15468
       305.53485      -223.97495         0.51575         0.51575
       305.53485      -239.97316        -0.11354        -0.11354
       318.53833      -223.97495         0.15468         0.15468
       318.53833      -207.97674        -0.08178        -0.08178
       305.53485      -207.97674         0.42981         0.42981
       305.53485      -223.97495         0.51575         0.51575
       318.53833      -207.97674        -0.08178        -0.08178
       318.53833      -191.97853        -0.15547        -0.15547
       305.53485      -191.97853         0.16593         0.16593
       305.53485      -207.97674         0.42981         0.42981
       318.53833      -191.97853        -0.15547        -0.15547
       318.53833      -175.98032        -0.41728        -0.41728
       305.53485      -175.98032         0.37902         0.37902
       305.53485      -191.97853         0.16593         0.16593
       318.53833      -175.98032        -0.41728        -0.41728
       318.53833      -159.98210        -1.11462        -1.11462
       305.53485      -159.98210         0.15654         0.15654
       305.53485      -175.98032         0.37902         0.37902
       318.53833      -159.98210        -1.11462        -1.11462
       318.53833      -143.98389        -0.80607        -0.80607
       305.53485      -143.98389        -0.00774        -0.00774
       305.53485      -159.98210         0.15654         0.15654
       318.53833      -143.98389        -0.80607        -0.80607
       318.53833      -127.98568         0.20151         0.20151
       305.53485      -127.98568         0.70458         0.70458
       305.53485      -143.98389        -0.00774        -0.00774
       318.53833      -127.98568         0.20151         0.20151
       318.53833      -111.98747         0.35525         0.35525
       305.53485      -111.98747         1.20512         1.20512
       305.53485      -127.98568         0.70458         0.70458
       318.53833      -111.98747         0.35525         0.35525
       318.53833       -95.98926        -0.08878        -0.08878
       305.53485       -95.98926         1.07631         1.07631
       305.53485      -111.98747         1.20512         1.20512
       318.53833       -95.98926        -0.08878        -0.08878
       318.53833       -79.99105        -0.42266        -0.42266
       305.53485       -79.99105         0.87586         0.87586
       305.53485       -95.98926         1.07631         1.07631
       318.53833       -79.99105        -0.42266        -0.42266
       318.53833       -63.99284        -0.77928        -0.77928
       305.53485       -63.99284         0.29916         0.29916
       305.53485       -79.99105         0.87586         0.87586
       318.53833       -63.99284        -0.77928        -0.77928
       318.53833       -47.99463        -1.44376        -1.44376
       305.53485       -47.99463        -1.01918        -1.01918
       305.53485       -63.99284         0.29916         0.29916
       318.53833       -47.99463        -1.44376        -1.44376
       318.53833       -31.99642        -2.38536        -2.38536
       305.53485       -31.99642        -2.66305        -2.66305
       305.53485       -47.99463        -1.01918        -1.01918
       318.53833       -31.99642        -2.38536        -2.38536
       318.53833       -15.99821        -2.86502        -2.86502
       305.53485       -15.99821        -3.62974        -3.62974
       305.53485       -31.99642        -2.66305        -2.66305
       318.53833       -15.99821        -2.86502        -2.86502
       318.53833         0.00000        -2.36549        -2.36549
       305.53485         0.00000        -3.14759        -3.14759
       305.53485       -15.99821        -3.62974        -3.62974
       318.53833         0.00000        -2.36549        -2.36549
       318.53833        15.99821        -1.57054        -1.57054
       305.53485        15.99821        -1.96394        -1.96394
       305.53485         0.00000        -3.14759        -3.14759
       318.53833        15.99821        -1.57054        -1.57054
       318.53833        31.99642        -0.87024        -0.87024
       305.53485        31.99642        -1.22823        -1.22823
       305.53485        15.99821        -1.96394        -1.96394
       318.53833        31.99642        -0.87024        -0.87024
       318.53833        47.99463         0.01020         0.01020
       305.53485        47.99463        -0.63338        -0.63338
       305.53485        31.99642        -1.22823        -1.22823
       318.53833        47.99463         0.01020         0.01020
       318.53833        63.99284         0.39105         0.39105
       305.53485        63.99284         0.03704         0.03704
       305.53485        47.99463        -0.63338        -0.63338
       318.53833        63.99284         0.39105         0.39105
       318.53833        79.99105        -0.26260        -0.26260
       305.53485        79.99105        -0.05138        -0.05138
       305.53485        63.99284         0.03704         0.03704
       318.53833        79.99105        -0.26260        -0.26260
       318.53833        95.98926        -1.03712        -1.03712
       305.53485        95.98926        -0.73948        -0.73948
       305.53485        79.99105        -0.05138        -0.05138
       318.53833        95.98926        -1.03712        -1.03712
       318.53833       111.98747        -1.31012        -1.31012
       305.53485       111.98747        -1.06517        -1.06517
       305.53485        95.98926        -0.73948        -0.73948
       318.53833       111.98747        -1.31012        -1.31012
       318.53833       127.98568        -1.35648        -1.35648
       305.53485       127.98568        -0.86874        -0.86874
       305.53485       111.98747        -1.06517        -1.06517
       318.53833       127.98568        -1.35648        -1.35648
       318.53833       143.98389        -1.54443        -1.54443
       305.53485       143.98389        -0.54878        -0.54878
       305.53485       127.98568        -0.86874        -0.86874
       318.53833       143.98389        -1.54443        -1.54443
       318.53833       159.98210        -1.87528        -1.87528
       305.53485       159.98210        -0.63318        -0.63318
       305.53485       143.98389        -0.54878        -0.54878
       318.53833       159.98210        -1.87528        -1.87528
       318.53833       175.98032        -1.66207        -1.66207
       305.53485       175.98032        -0.99069        -0.99069
       305.53485       159.98210        -0.63318        -0.63318
       318.53833       175.98032        -1.66207        -1.66207
       318.53833       191.97853        -0.91627        -0.91627
       305.53485       191.97853        -1.05797        -1.05797
       305.53485       175.98032        -0.99069        -0.99069
       318.53833       191.97853        -0.91627        -0.91627
       318.53833       207.97674        -0.41767        -0.41767
       305.53485       207.97674        -1.15971        -1.15971
       305.53485       191.97853        -1.05797        -1.05797
       318.53833       207.97674        -0.41767        -0.41767
       318.53833       223.97495         0.03371         0.03371
       305.53485       223.97495        -1.28777        -1.28777
       305.53485       207.97674        -1.15971        -1.15971
       318.53833       223.97495         0.03371         0.03371
       318.53833       239.97316         0.40317         0.40317
       305.53485       239.97316        -0.94399        -0.94399
       305.53485       223.97495        -1.28777        -1.28777
       318.53833       239.97316         0.40317         0.40317
       318.53833       255.97137        -0.01414        -0.01414
       305.53485       255.97137        -0.73242        -0.73242
       305.53485       239.97316        -0.94399        -0.94399
       318.53833       255.97137        -0.01414        -0.01414