 VARIABLES= "X","Y","Z","yita"                                                                                                                                                                                                                                                                                                                                                                                                                                                                                                  
ZONE N=                                       11856 E=                             2964 F=FEPOINT, ET=QUADRILATERAL                                                                                                                                                                                                                                                                                                                                                                                                             
       344.54530      -303.96600         1.61853         1.61853
       344.54530      -287.96779         1.61853         1.61853
       331.54182      -287.96779         1.61853         1.61853
       331.54182      -303.96600         1.61853         1.61853
       344.54530      -287.96779         1.61853         1.61853
       344.54530      -271.96958         1.34961         1.34961
       331.54182      -271.96958         1.34961         1.34961
       331.54182      -287.96779         1.61853         1.61853
       344.54530      -271.96958         1.34961         1.34961
       344.54530      -255.97137         1.71461         1.71461
       331.54182      -255.97137         1.71461         1.71461
       331.54182      -271.96958         1.34961         1.34961
       344.54530      -255.97137         1.71461         1.71461
       344.54530      -239.97316         2.02765         2.02765
       331.54182      -239.97316         2.02765         2.02765
       331.54182      -255.97137         1.71461         1.71461
       344.54530      -239.97316         2.02765         2.02765
       344.54530      -223.97495         1.38571         1.38571
       331.54182      -223.97495         1.38571         1.38571
       331.54182      -239.97316         2.02765         2.02765
       344.54530      -223.97495         1.38571         1.38571
       344.54530      -207.97674         0.35440         0.35440
       331.54182      -207.97674         0.35440         0.35440
       331.54182      -223.97495         1.38571         1.38571
       344.54530      -207.97674         0.35440         0.35440
       344.54530      -191.97853        -0.60494        -0.60494
       331.54182      -191.97853        -0.60494        -0.60494
       331.54182      -207.97674         0.35440         0.35440
       344.54530      -191.97853        -0.60494        -0.60494
       344.54530      -175.98032        -1.50418        -1.50418
       331.54182      -175.98032        -1.50418        -1.50418
       331.54182      -191.97853        -0.60494        -0.60494
       344.54530      -175.98032        -1.50418        -1.50418
       344.54530      -159.98210        -2.23792        -2.23792
       331.54182      -159.98210        -2.23792        -2.23792
       331.54182      -175.98032        -1.50418        -1.50418
       344.54530      -159.98210        -2.23792        -2.23792
       344.54530      -143.98389        -2.93303        -2.93303
       331.54182      -143.98389        -2.93303        -2.93303
       331.54182      -159.98210        -2.23792        -2.23792
       344.54530      -143.98389        -2.93303        -2.93303
       344.54530      -127.98568        -3.36594        -3.36594
       331.54182      -127.98568        -3.36594        -3.36594
       331.54182      -143.98389        -2.93303        -2.93303
       344.54530      -127.98568        -3.36594        -3.36594
       344.54530      -111.98747        -3.72091        -3.72091
       331.54182      -111.98747        -3.72091        -3.72091
       331.54182      -127.98568        -3.36594        -3.36594
       344.54530      -111.98747        -3.72091        -3.72091
       344.54530       -95.98926        -4.05132        -4.05132
       331.54182       -95.98926        -4.05132        -4.05132
       331.54182      -111.98747        -3.72091        -3.72091
       344.54530       -95.98926        -4.05132        -4.05132
       344.54530       -79.99105        -3.30396        -3.30396
       331.54182       -79.99105        -3.30396        -3.30396
       331.54182       -95.98926        -4.05132        -4.05132
       344.54530       -79.99105        -3.30396        -3.30396
       344.54530       -63.99284        -2.36886        -2.36886
       331.54182       -63.99284        -2.36886        -2.36886
       331.54182       -79.99105        -3.30396        -3.30396
       344.54530       -63.99284        -2.36886        -2.36886
       344.54530       -47.99463        -2.58525        -2.58525
       331.54182       -47.99463        -2.58525        -2.58525
       331.54182       -63.99284        -2.36886        -2.36886
       344.54530       -47.99463        -2.58525        -2.58525
       344.54530       -31.99642        -2.77982        -2.77982
       331.54182       -31.99642        -2.77982        -2.77982
       331.54182       -47.99463        -2.58525        -2.58525
       344.54530       -31.99642        -2.77982        -2.77982
       344.54530       -15.99821        -3.07228        -3.07228
       331.54182       -15.99821        -3.07228        -3.07228
       331.54182       -31.99642        -2.77982        -2.77982
       344.54530       -15.99821        -3.07228        -3.07228
       344.54530         0.00000        -4.23110        -4.23110
       331.54182         0.00000        -4.23110        -4.23110
       331.54182       -15.99821        -3.07228        -3.07228
       344.54530         0.00000        -4.23110        -4.23110
       344.54530        15.99821        -4.85402        -4.85402
       331.54182        15.99821        -4.85402        -4.85402
       331.54182         0.00000        -4.23110        -4.23110
       344.54530        15.99821        -4.85402        -4.85402
       344.54530        31.99642        -4.76407        -4.76407
       331.54182        31.99642        -4.76407        -4.76407
       331.54182        15.99821        -4.85402        -4.85402
       344.54530        31.99642        -4.76407        -4.76407
       344.54530        47.99463        -4.85935        -4.85935
       331.54182        47.99463        -4.85935        -4.85935
       331.54182        31.99642        -4.76407        -4.76407
       344.54530        47.99463        -4.85935        -4.85935
       344.54530        63.99284        -4.73313        -4.73313
       331.54182        63.99284        -4.73313        -4.73313
       331.54182        47.99463        -4.85935        -4.85935
       344.54530        63.99284        -4.73313        -4.73313
       344.54530        79.99105        -4.00661        -4.00661
       331.54182        79.99105        -4.00661        -4.00661
       331.54182        63.99284        -4.73313        -4.73313
       344.54530        79.99105        -4.00661        -4.00661
       344.54530        95.98926        -2.87965        -2.87965
       331.54182        95.98926        -2.87965        -2.87965
       331.54182        79.99105        -4.00661        -4.00661
       344.54530        95.98926        -2.87965        -2.87965
       344.54530       111.98747        -2.30204        -2.30204
       331.54182       111.98747        -2.30204        -2.30204
       331.54182        95.98926        -2.87965        -2.87965
       344.54530       111.98747        -2.30204        -2.30204
       344.54530       127.98568        -2.73047        -2.73047
       331.54182       127.98568        -2.73047        -2.73047
       331.54182       111.98747        -2.30204        -2.30204
       344.54530       127.98568        -2.73047        -2.73047
       344.54530       143.98389        -2.80737        -2.80737
       331.54182       143.98389        -2.80737        -2.80737
       331.54182       127.98568        -2.73047        -2.73047
       344.54530       143.98389        -2.80737        -2.80737
       344.54530       159.98210        -2.26313        -2.26313
       331.54182       159.98210        -2.26313        -2.26313
       331.54182       143.98389        -2.80737        -2.80737
       344.54530       159.98210        -2.26313        -2.26313
       344.54530       175.98032        -1.74111        -1.74111
       331.54182       175.98032        -1.74111        -1.74111
       331.54182       159.98210        -2.26313        -2.26313
       344.54530       175.98032        -1.74111        -1.74111
       344.54530       191.97853        -0.39367        -0.39367
       331.54182       191.97853        -0.39367        -0.39367
       331.54182       175.98032        -1.74111        -1.74111
       344.54530       191.97853        -0.39367        -0.39367
       344.54530       207.97674         1.52825         1.52825
       331.54182       207.97674         1.52825         1.52825
       331.54182       191.97853        -0.39367        -0.39367
       344.54530       207.97674         1.52825         1.52825
       344.54530       223.97495         2.58739         2.58739
       331.54182       223.97495         2.58739         2.58739
       331.54182       207.97674         1.52825         1.52825
       344.54530       223.97495         2.58739         2.58739
       344.54530       239.97316         3.20097         3.20097
       331.54182       239.97316         3.20097         3.20097
       331.54182       223.97495         2.58739         2.58739
       344.54530       239.97316         3.20097         3.20097
       344.54530       255.97137         4.14181         4.14181
       331.54182       255.97137         4.14181         4.14181
       331.54182       239.97316         3.20097         3.20097
       344.54530       255.97137         4.14181         4.14181
       344.54530       271.96958         4.94727         4.94727
       331.54182       271.96958         4.94727         4.94727
       331.54182       255.97137         4.14181         4.14181
       344.54530       271.96958         4.94727         4.94727
       344.54530       287.96779         5.28925         5.28925
       331.54182       287.96779         5.28925         5.28925
       331.54182       271.96958         4.94727         4.94727
       344.54530       287.96779         5.28925         5.28925
       344.54530       303.96600         5.28925         5.28925
       331.54182       303.96600         5.28925         5.28925
       331.54182       287.96779         5.28925         5.28925
       331.54182      -303.96600         1.61853         1.61853
       331.54182      -287.96779         1.61853         1.61853
       318.53833      -287.96779         1.96842         1.96842
       318.53833      -303.96600         1.96842         1.96842
       331.54182      -287.96779         1.61853         1.61853
       331.54182      -271.96958         1.34961         1.34961
       318.53833      -271.96958         1.18778         1.18778
       318.53833      -287.96779         1.96842         1.96842
       331.54182      -271.96958         1.34961         1.34961
       331.54182      -255.97137         1.71461         1.71461
       318.53833      -255.97137         0.74243         0.74243
       318.53833      -271.96958         1.18778         1.18778
       331.54182      -255.97137         1.71461         1.71461
       331.54182      -239.97316         2.02765         2.02765
       318.53833      -239.97316         0.78806         0.78806
       318.53833      -255.97137         0.74243         0.74243
       331.54182      -239.97316         2.02765         2.02765
       331.54182      -223.97495         1.38571         1.38571
       318.53833      -223.97495         0.39937         0.39937
       318.53833      -239.97316         0.78806         0.78806
       331.54182      -223.97495         1.38571         1.38571
       331.54182      -207.97674         0.35440         0.35440
       318.53833      -207.97674        -0.47453        -0.47453
       318.53833      -223.97495         0.39937         0.39937
       331.54182      -207.97674         0.35440         0.35440
       331.54182      -191.97853        -0.60494        -0.60494
       318.53833      -191.97853        -1.16113        -1.16113
       318.53833      -207.97674        -0.47453        -0.47453
       331.54182      -191.97853        -0.60494        -0.60494
       331.54182      -175.98032        -1.50418        -1.50418
       318.53833      -175.98032        -1.63394        -1.63394
       318.53833      -191.97853        -1.16113        -1.16113
       331.54182      -175.98032        -1.50418        -1.50418
       331.54182      -159.98210        -2.23792        -2.23792
       318.53833      -159.98210        -1.80867        -1.80867
       318.53833      -175.98032        -1.63394        -1.63394
       331.54182      -159.98210        -2.23792        -2.23792
       331.54182      -143.98389        -2.93303        -2.93303
       318.53833      -143.98389        -1.86602        -1.86602
       318.53833      -159.98210        -1.80867        -1.80867
       331.54182      -143.98389        -2.93303        -2.93303
       331.54182      -127.98568        -3.36594        -3.36594
       318.53833      -127.98568        -2.04944        -2.04944
       318.53833      -143.98389        -1.86602        -1.86602
       331.54182      -127.98568        -3.36594        -3.36594
       331.54182      -111.98747        -3.72091        -3.72091
       318.53833      -111.98747        -2.33879        -2.33879
       318.53833      -127.98568        -2.04944        -2.04944
       331.54182      -111.98747        -3.72091        -3.72091
       331.54182       -95.98926        -4.05132        -4.05132
       318.53833       -95.98926        -2.93178        -2.93178
       318.53833      -111.98747        -2.33879        -2.33879
       331.54182       -95.98926        -4.05132        -4.05132
       331.54182       -79.99105        -3.30396        -3.30396
       318.53833       -79.99105        -2.78847        -2.78847
       318.53833       -95.98926        -2.93178        -2.93178
       331.54182       -79.99105        -3.30396        -3.30396
       331.54182       -63.99284        -2.36886        -2.36886
       318.53833       -63.99284        -1.56129        -1.56129
       318.53833       -79.99105        -2.78847        -2.78847
       331.54182       -63.99284        -2.36886        -2.36886
       331.54182       -47.99463        -2.58525        -2.58525
       318.53833       -47.99463        -1.33368        -1.33368
       318.53833       -63.99284        -1.56129        -1.56129
       331.54182       -47.99463        -2.58525        -2.58525
       331.54182       -31.99642        -2.77982        -2.77982
       318.53833       -31.99642        -2.11649        -2.11649
       318.53833       -47.99463        -1.33368        -1.33368
       331.54182       -31.99642        -2.77982        -2.77982
       331.54182       -15.99821        -3.07228        -3.07228
       318.53833       -15.99821        -2.62352        -2.62352
       318.53833       -31.99642        -2.11649        -2.11649
       331.54182       -15.99821        -3.07228        -3.07228
       331.54182         0.00000        -4.23110        -4.23110
       318.53833         0.00000        -3.43664        -3.43664
       318.53833       -15.99821        -2.62352        -2.62352
       331.54182         0.00000        -4.23110        -4.23110
       331.54182        15.99821        -4.85402        -4.85402
       318.53833        15.99821        -3.96631        -3.96631
       318.53833         0.00000        -3.43664        -3.43664
       331.54182        15.99821        -4.85402        -4.85402
       331.54182        31.99642        -4.76407        -4.76407
       318.53833        31.99642        -3.46654        -3.46654
       318.53833        15.99821        -3.96631        -3.96631
       331.54182        31.99642        -4.76407        -4.76407
       331.54182        47.99463        -4.85935        -4.85935
       318.53833        47.99463        -3.26492        -3.26492
       318.53833        31.99642        -3.46654        -3.46654
       331.54182        47.99463        -4.85935        -4.85935
       331.54182        63.99284        -4.73313        -4.73313
       318.53833        63.99284        -3.64154        -3.64154
       318.53833        47.99463        -3.26492        -3.26492
       331.54182        63.99284        -4.73313        -4.73313
       331.54182        79.99105        -4.00661        -4.00661
       318.53833        79.99105        -3.67647        -3.67647
       318.53833        63.99284        -3.64154        -3.64154
       331.54182        79.99105        -4.00661        -4.00661
       331.54182        95.98926        -2.87965        -2.87965
       318.53833        95.98926        -2.99511        -2.99511
       318.53833        79.99105        -3.67647        -3.67647
       331.54182        95.98926        -2.87965        -2.87965
       331.54182       111.98747        -2.30204        -2.30204
       318.53833       111.98747        -2.10357        -2.10357
       318.53833        95.98926        -2.99511        -2.99511
       331.54182       111.98747        -2.30204        -2.30204
       331.54182       127.98568        -2.73047        -2.73047
       318.53833       127.98568        -2.11958        -2.11958
       318.53833       111.98747        -2.10357        -2.10357
       331.54182       127.98568        -2.73047        -2.73047
       331.54182       143.98389        -2.80737        -2.80737
       318.53833       143.98389        -2.51383        -2.51383
       318.53833       127.98568        -2.11958        -2.11958
       331.54182       143.98389        -2.80737        -2.80737
       331.54182       159.98210        -2.26313        -2.26313
       318.53833       159.98210        -2.23003        -2.23003
       318.53833       143.98389        -2.51383        -2.51383
       331.54182       159.98210        -2.26313        -2.26313
       331.54182       175.98032        -1.74111        -1.74111
       318.53833       175.98032        -1.98428        -1.98428
       318.53833       159.98210        -2.23003        -2.23003
       331.54182       175.98032        -1.74111        -1.74111
       331.54182       191.97853        -0.39367        -0.39367
       318.53833       191.97853        -1.53523        -1.53523
       318.53833       175.98032        -1.98428        -1.98428
       331.54182       191.97853        -0.39367        -0.39367
       331.54182       207.97674         1.52825         1.52825
       318.53833       207.97674        -0.00728        -0.00728
       318.53833       191.97853        -1.53523        -1.53523
       331.54182       207.97674         1.52825         1.52825
       331.54182       223.97495         2.58739         2.58739
       318.53833       223.97495         1.41237         1.41237
       318.53833       207.97674        -0.00728        -0.00728
       331.54182       223.97495         2.58739         2.58739
       331.54182       239.97316         3.20097         3.20097
       318.53833       239.97316         1.97791         1.97791
       318.53833       223.97495         1.41237         1.41237
       331.54182       239.97316         3.20097         3.20097
       331.54182       255.97137         4.14181         4.14181
       318.53833       255.97137         2.46424         2.46424
       318.53833       239.97316         1.97791         1.97791
       331.54182       255.97137         4.14181         4.14181
       331.54182       271.96958         4.94727         4.94727
       318.53833       271.96958         2.95823         2.95823
       318.53833       255.97137         2.46424         2.46424
       331.54182       271.96958         4.94727         4.94727
       331.54182       287.96779         5.28925         5.28925
       318.53833       287.96779         3.21009         3.21009
       318.53833       271.96958         2.95823         2.95823
       331.54182       287.96779         5.28925         5.28925
       331.54182       303.96600         5.28925         5.28925
       318.53833       303.96600         3.21009         3.21009
       318.53833       287.96779         3.21009         3.21009
       318.53833      -303.96600         1.96842         1.96842
       318.53833      -287.96779         1.96842         1.96842
       305.53485      -287.96779         2.02912         2.02912
       305.53485      -303.96600         2.02912         2.02912
       318.53833      -287.96779         1.96842         1.96842
       318.53833      -271.96958         1.18778         1.18778
       305.53485      -271.96958         0.71654         0.71654
       305.53485      -287.96779         2.02912         2.02912
       318.53833      -271.96958         1.18778         1.18778
       318.53833      -255.97137         0.74243         0.74243
       305.53485      -255.97137        -0.56253        -0.56253
       305.53485      -271.96958         0.71654         0.71654
       318.53833      -255.97137         0.74243         0.74243
       318.53833      -239.97316         0.78806         0.78806
       305.53485      -239.97316        -0.96105        -0.96105
       305.53485      -255.97137        -0.56253        -0.56253
       318.53833      -239.97316         0.78806         0.78806
       318.53833      -223.97495         0.39937         0.39937
       305.53485      -223.97495        -0.96818        -0.96818
       305.53485      -239.97316        -0.96105        -0.96105
       318.53833      -223.97495         0.39937         0.39937
       318.53833      -207.97674        -0.47453        -0.47453
       305.53485      -207.97674        -1.36556        -1.36556
       305.53485      -223.97495        -0.96818        -0.96818
       318.53833      -207.97674        -0.47453        -0.47453
       318.53833      -191.97853        -1.16113        -1.16113
       305.53485      -191.97853        -1.64236        -1.64236
       305.53485      -207.97674        -1.36556        -1.36556
       318.53833      -191.97853        -1.16113        -1.16113
       318.53833      -175.98032        -1.63394        -1.63394
       305.53485      -175.98032        -1.55664        -1.55664
       305.53485      -191.97853        -1.64236        -1.64236
       318.53833      -175.98032        -1.63394        -1.63394
       318.53833      -159.98210        -1.80867        -1.80867
       305.53485      -159.98210        -1.33216        -1.33216
       305.53485      -175.98032        -1.55664        -1.55664
       318.53833      -159.98210        -1.80867        -1.80867
       318.53833      -143.98389        -1.86602        -1.86602
       305.53485      -143.98389        -1.14185        -1.14185
       305.53485      -159.98210        -1.33216        -1.33216
       318.53833      -143.98389        -1.86602        -1.86602
       318.53833      -127.98568        -2.04944        -2.04944
       305.53485      -127.98568        -1.29271        -1.29271
       305.53485      -143.98389        -1.14185        -1.14185
       318.53833      -127.98568        -2.04944        -2.04944
       318.53833      -111.98747        -2.33879        -2.33879
       305.53485      -111.98747        -1.50123        -1.50123
       305.53485      -127.98568        -1.29271        -1.29271
       318.53833      -111.98747        -2.33879        -2.33879
       318.53833       -95.98926        -2.93178        -2.93178
       305.53485       -95.98926        -1.78851        -1.78851
       305.53485      -111.98747        -1.50123        -1.50123
       318.53833       -95.98926        -2.93178        -2.93178
       318.53833       -79.99105        -2.78847        -2.78847
       305.53485       -79.99105        -2.01219        -2.01219
       305.53485       -95.98926        -1.78851        -1.78851
       318.53833       -79.99105        -2.78847        -2.78847
       318.53833       -63.99284        -1.56129        -1.56129
       305.53485       -63.99284        -1.24798        -1.24798
       305.53485       -79.99105        -2.01219        -2.01219
       318.53833       -63.99284        -1.56129        -1.56129
       318.53833       -47.99463        -1.33368        -1.33368
       305.53485       -47.99463        -0.65335        -0.65335
       305.53485       -63.99284        -1.24798        -1.24798
       318.53833       -47.99463        -1.33368        -1.33368
       318.53833       -31.99642        -2.11649        -2.11649
       305.53485       -31.99642        -1.22173        -1.22173
       305.53485       -47.99463        -0.65335        -0.65335
       318.53833       -31.99642        -2.11649        -2.11649
       318.53833       -15.99821        -2.62352        -2.62352
       305.53485       -15.99821        -1.25779        -1.25779
       305.53485       -31.99642        -1.22173        -1.22173
       318.53833       -15.99821        -2.62352        -2.62352
       318.53833         0.00000        -3.43664        -3.43664
       305.53485         0.00000        -0.80898        -0.80898
       305.53485       -15.99821        -1.25779        -1.25779
       318.53833         0.00000        -3.43664        -3.43664
       318.53833        15.99821        -3.96631        -3.96631
       305.53485        15.99821        -0.90421        -0.90421
       305.53485         0.00000        -0.80898        -0.80898
       318.53833        15.99821        -3.96631        -3.96631
       318.53833        31.99642        -3.46654        -3.46654
       305.53485        31.99642        -0.81627        -0.81627
       305.53485        15.99821        -0.90421        -0.90421
       318.53833        31.99642        -3.46654        -3.46654
       318.53833        47.99463        -3.26492        -3.26492
       305.53485        47.99463        -0.96565        -0.96565
       305.53485        31.99642        -0.81627        -0.81627
       318.53833        47.99463        -3.26492        -3.26492
       318.53833        63.99284        -3.64154        -3.64154
       305.53485        63.99284        -2.01837        -2.01837
       305.53485        47.99463        -0.96565        -0.96565
       318.53833        63.99284        -3.64154        -3.64154
       318.53833        79.99105        -3.67647        -3.67647
       305.53485        79.99105        -2.91857        -2.91857
       305.53485        63.99284        -2.01837        -2.01837
       318.53833        79.99105        -3.67647        -3.67647
       318.53833        95.98926        -2.99511        -2.99511
       305.53485        95.98926        -2.84167        -2.84167
       305.53485        79.99105        -2.91857        -2.91857
       318.53833        95.98926        -2.99511        -2.99511
       318.53833       111.98747        -2.10357        -2.10357
       305.53485       111.98747        -1.93663        -1.93663
       305.53485        95.98926        -2.84167        -2.84167
       318.53833       111.98747        -2.10357        -2.10357
       318.53833       127.98568        -2.11958        -2.11958
       305.53485       127.98568        -1.42121        -1.42121
       305.53485       111.98747        -1.93663        -1.93663
       318.53833       127.98568        -2.11958        -2.11958
       318.53833       143.98389        -2.51383        -2.51383
       305.53485       143.98389        -1.96093        -1.96093
       305.53485       127.98568        -1.42121        -1.42121
       318.53833       143.98389        -2.51383        -2.51383
       318.53833       159.98210        -2.23003        -2.23003
       305.53485       159.98210        -2.36415        -2.36415
       305.53485       143.98389        -1.96093        -1.96093
       318.53833       159.98210        -2.23003        -2.23003
       318.53833       175.98032        -1.98428        -1.98428
       305.53485       175.98032        -2.45263        -2.45263
       305.53485       159.98210        -2.36415        -2.36415
       318.53833       175.98032        -1.98428        -1.98428
       318.53833       191.97853        -1.53523        -1.53523
       305.53485       191.97853        -2.57391        -2.57391
       305.53485       175.98032        -2.45263        -2.45263
       318.53833       191.97853        -1.53523        -1.53523
       318.53833       207.97674        -0.00728        -0.00728
       305.53485       207.97674        -1.64739        -1.64739
       305.53485       191.97853        -2.57391        -2.57391
       318.53833       207.97674        -0.00728        -0.00728
       318.53833       223.97495         1.41237         1.41237
       305.53485       223.97495        -0.12195        -0.12195
       305.53485       207.97674        -1.64739        -1.64739
       318.53833       223.97495         1.41237         1.41237
       318.53833       239.97316         1.97791         1.97791
       305.53485       239.97316         0.38814         0.38814
       305.53485       223.97495        -0.12195        -0.12195
       318.53833       239.97316         1.97791         1.97791
       318.53833       255.97137         2.46424         2.46424
       305.53485       255.97137         0.32759         0.32759
       305.53485       239.97316         0.38814         0.38814
       318.53833       255.97137         2.46424         2.46424