 VARIABLES= "X","Y","Z","yita"                                                                                                                                                                                                                                                                                                                                                                                                                                                                                                  
ZONE N=                                       11856 E=                             2964 F=FEPOINT, ET=QUADRILATERAL                                                                                                                                                                                                                                                                                                                                                                                                             
       344.54530      -303.96600         1.76174         1.76174
       344.54530      -287.96779         1.76174         1.76174
       331.54182      -287.96779         1.76174         1.76174
       331.54182      -303.96600         1.76174         1.76174
       344.54530      -287.96779         1.76174         1.76174
       344.54530      -271.96958         3.01649         3.01649
       331.54182      -271.96958         3.01649         3.01649
       331.54182      -287.96779         1.76174         1.76174
       344.54530      -271.96958         3.01649         3.01649
       344.54530      -255.97137         3.11294         3.11294
       331.54182      -255.97137         3.11294         3.11294
       331.54182      -271.96958         3.01649         3.01649
       344.54530      -255.97137         3.11294         3.11294
       344.54530      -239.97316         2.86877         2.86877
       331.54182      -239.97316         2.86877         2.86877
       331.54182      -255.97137         3.11294         3.11294
       344.54530      -239.97316         2.86877         2.86877
       344.54530      -223.97495         2.45852         2.45852
       331.54182      -223.97495         2.45852         2.45852
       331.54182      -239.97316         2.86877         2.86877
       344.54530      -223.97495         2.45852         2.45852
       344.54530      -207.97674         1.82127         1.82127
       331.54182      -207.97674         1.82127         1.82127
       331.54182      -223.97495         2.45852         2.45852
       344.54530      -207.97674         1.82127         1.82127
       344.54530      -191.97853         1.71980         1.71980
       331.54182      -191.97853         1.71980         1.71980
       331.54182      -207.97674         1.82127         1.82127
       344.54530      -191.97853         1.71980         1.71980
       344.54530      -175.98032         2.39075         2.39075
       331.54182      -175.98032         2.39075         2.39075
       331.54182      -191.97853         1.71980         1.71980
       344.54530      -175.98032         2.39075         2.39075
       344.54530      -159.98210         3.26053         3.26053
       331.54182      -159.98210         3.26053         3.26053
       331.54182      -175.98032         2.39075         2.39075
       344.54530      -159.98210         3.26053         3.26053
       344.54530      -143.98389         3.51282         3.51282
       331.54182      -143.98389         3.51282         3.51282
       331.54182      -159.98210         3.26053         3.26053
       344.54530      -143.98389         3.51282         3.51282
       344.54530      -127.98568         2.88672         2.88672
       331.54182      -127.98568         2.88672         2.88672
       331.54182      -143.98389         3.51282         3.51282
       344.54530      -127.98568         2.88672         2.88672
       344.54530      -111.98747         2.31646         2.31646
       331.54182      -111.98747         2.31646         2.31646
       331.54182      -127.98568         2.88672         2.88672
       344.54530      -111.98747         2.31646         2.31646
       344.54530       -95.98926         2.31489         2.31489
       331.54182       -95.98926         2.31489         2.31489
       331.54182      -111.98747         2.31646         2.31646
       344.54530       -95.98926         2.31489         2.31489
       344.54530       -79.99105         2.09094         2.09094
       331.54182       -79.99105         2.09094         2.09094
       331.54182       -95.98926         2.31489         2.31489
       344.54530       -79.99105         2.09094         2.09094
       344.54530       -63.99284         1.72806         1.72806
       331.54182       -63.99284         1.72806         1.72806
       331.54182       -79.99105         2.09094         2.09094
       344.54530       -63.99284         1.72806         1.72806
       344.54530       -47.99463         2.14356         2.14356
       331.54182       -47.99463         2.14356         2.14356
       331.54182       -63.99284         1.72806         1.72806
       344.54530       -47.99463         2.14356         2.14356
       344.54530       -31.99642         2.85540         2.85540
       331.54182       -31.99642         2.85540         2.85540
       331.54182       -47.99463         2.14356         2.14356
       344.54530       -31.99642         2.85540         2.85540
       344.54530       -15.99821         2.92008         2.92008
       331.54182       -15.99821         2.92008         2.92008
       331.54182       -31.99642         2.85540         2.85540
       344.54530       -15.99821         2.92008         2.92008
       344.54530         0.00000         2.40825         2.40825
       331.54182         0.00000         2.40825         2.40825
       331.54182       -15.99821         2.92008         2.92008
       344.54530         0.00000         2.40825         2.40825
       344.54530        15.99821         1.86798         1.86798
       331.54182        15.99821         1.86798         1.86798
       331.54182         0.00000         2.40825         2.40825
       344.54530        15.99821         1.86798         1.86798
       344.54530        31.99642         1.72922         1.72922
       331.54182        31.99642         1.72922         1.72922
       331.54182        15.99821         1.86798         1.86798
       344.54530        31.99642         1.72922         1.72922
       344.54530        47.99463         1.53492         1.53492
       331.54182        47.99463         1.53492         1.53492
       331.54182        31.99642         1.72922         1.72922
       344.54530        47.99463         1.53492         1.53492
       344.54530        63.99284         0.72912         0.72912
       331.54182        63.99284         0.72912         0.72912
       331.54182        47.99463         1.53492         1.53492
       344.54530        63.99284         0.72912         0.72912
       344.54530        79.99105        -0.17820        -0.17820
       331.54182        79.99105        -0.17820        -0.17820
       331.54182        63.99284         0.72912         0.72912
       344.54530        79.99105        -0.17820        -0.17820
       344.54530        95.98926        -1.03239        -1.03239
       331.54182        95.98926        -1.03239        -1.03239
       331.54182        79.99105        -0.17820        -0.17820
       344.54530        95.98926        -1.03239        -1.03239
       344.54530       111.98747        -1.81163        -1.81163
       331.54182       111.98747        -1.81163        -1.81163
       331.54182        95.98926        -1.03239        -1.03239
       344.54530       111.98747        -1.81163        -1.81163
       344.54530       127.98568        -1.74100        -1.74100
       331.54182       127.98568        -1.74100        -1.74100
       331.54182       111.98747        -1.81163        -1.81163
       344.54530       127.98568        -1.74100        -1.74100
       344.54530       143.98389        -0.93259        -0.93259
       331.54182       143.98389        -0.93259        -0.93259
       331.54182       127.98568        -1.74100        -1.74100
       344.54530       143.98389        -0.93259        -0.93259
       344.54530       159.98210        -0.14955        -0.14955
       331.54182       159.98210        -0.14955        -0.14955
       331.54182       143.98389        -0.93259        -0.93259
       344.54530       159.98210        -0.14955        -0.14955
       344.54530       175.98032        -0.00604        -0.00604
       331.54182       175.98032        -0.00604        -0.00604
       331.54182       159.98210        -0.14955        -0.14955
       344.54530       175.98032        -0.00604        -0.00604
       344.54530       191.97853        -0.85220        -0.85220
       331.54182       191.97853        -0.85220        -0.85220
       331.54182       175.98032        -0.00604        -0.00604
       344.54530       191.97853        -0.85220        -0.85220
       344.54530       207.97674        -1.45491        -1.45491
       331.54182       207.97674        -1.45491        -1.45491
       331.54182       191.97853        -0.85220        -0.85220
       344.54530       207.97674        -1.45491        -1.45491
       344.54530       223.97495        -1.06930        -1.06930
       331.54182       223.97495        -1.06930        -1.06930
       331.54182       207.97674        -1.45491        -1.45491
       344.54530       223.97495        -1.06930        -1.06930
       344.54530       239.97316        -1.17283        -1.17283
       331.54182       239.97316        -1.17283        -1.17283
       331.54182       223.97495        -1.06930        -1.06930
       344.54530       239.97316        -1.17283        -1.17283
       344.54530       255.97137        -2.03437        -2.03437
       331.54182       255.97137        -2.03437        -2.03437
       331.54182       239.97316        -1.17283        -1.17283
       344.54530       255.97137        -2.03437        -2.03437
       344.54530       271.96958        -2.50398        -2.50398
       331.54182       271.96958        -2.50398        -2.50398
       331.54182       255.97137        -2.03437        -2.03437
       344.54530       271.96958        -2.50398        -2.50398
       344.54530       287.96779        -2.66905        -2.66905
       331.54182       287.96779        -2.66905        -2.66905
       331.54182       271.96958        -2.50398        -2.50398
       344.54530       287.96779        -2.66905        -2.66905
       344.54530       303.96600        -2.66905        -2.66905
       331.54182       303.96600        -2.66905        -2.66905
       331.54182       287.96779        -2.66905        -2.66905
       331.54182      -303.96600         1.76174         1.76174
       331.54182      -287.96779         1.76174         1.76174
       318.53833      -287.96779         1.51103         1.51103
       318.53833      -303.96600         1.51103         1.51103
       331.54182      -287.96779         1.76174         1.76174
       331.54182      -271.96958         3.01649         3.01649
       318.53833      -271.96958         3.10655         3.10655
       318.53833      -287.96779         1.51103         1.51103
       331.54182      -271.96958         3.01649         3.01649
       331.54182      -255.97137         3.11294         3.11294
       318.53833      -255.97137         3.27832         3.27832
       318.53833      -271.96958         3.10655         3.10655
       331.54182      -255.97137         3.11294         3.11294
       331.54182      -239.97316         2.86877         2.86877
       318.53833      -239.97316         2.57231         2.57231
       318.53833      -255.97137         3.27832         3.27832
       331.54182      -239.97316         2.86877         2.86877
       331.54182      -223.97495         2.45852         2.45852
       318.53833      -223.97495         2.15165         2.15165
       318.53833      -239.97316         2.57231         2.57231
       331.54182      -223.97495         2.45852         2.45852
       331.54182      -207.97674         1.82127         1.82127
       318.53833      -207.97674         1.64115         1.64115
       318.53833      -223.97495         2.15165         2.15165
       331.54182      -207.97674         1.82127         1.82127
       331.54182      -191.97853         1.71980         1.71980
       318.53833      -191.97853         0.98956         0.98956
       318.53833      -207.97674         1.64115         1.64115
       331.54182      -191.97853         1.71980         1.71980
       331.54182      -175.98032         2.39075         2.39075
       318.53833      -175.98032         0.75880         0.75880
       318.53833      -191.97853         0.98956         0.98956
       331.54182      -175.98032         2.39075         2.39075
       331.54182      -159.98210         3.26053         3.26053
       318.53833      -159.98210         1.29213         1.29213
       318.53833      -175.98032         0.75880         0.75880
       331.54182      -159.98210         3.26053         3.26053
       331.54182      -143.98389         3.51282         3.51282
       318.53833      -143.98389         2.44857         2.44857
       318.53833      -159.98210         1.29213         1.29213
       331.54182      -143.98389         3.51282         3.51282
       331.54182      -127.98568         2.88672         2.88672
       318.53833      -127.98568         3.39847         3.39847
       318.53833      -143.98389         2.44857         2.44857
       331.54182      -127.98568         2.88672         2.88672
       331.54182      -111.98747         2.31646         2.31646
       318.53833      -111.98747         3.69743         3.69743
       318.53833      -127.98568         3.39847         3.39847
       331.54182      -111.98747         2.31646         2.31646
       331.54182       -95.98926         2.31489         2.31489
       318.53833       -95.98926         3.65559         3.65559
       318.53833      -111.98747         3.69743         3.69743
       331.54182       -95.98926         2.31489         2.31489
       331.54182       -79.99105         2.09094         2.09094
       318.53833       -79.99105         3.03243         3.03243
       318.53833       -95.98926         3.65559         3.65559
       331.54182       -79.99105         2.09094         2.09094
       331.54182       -63.99284         1.72806         1.72806
       318.53833       -63.99284         1.81160         1.81160
       318.53833       -79.99105         3.03243         3.03243
       331.54182       -63.99284         1.72806         1.72806
       331.54182       -47.99463         2.14356         2.14356
       318.53833       -47.99463         1.24864         1.24864
       318.53833       -63.99284         1.81160         1.81160
       331.54182       -47.99463         2.14356         2.14356
       331.54182       -31.99642         2.85540         2.85540
       318.53833       -31.99642         1.73969         1.73969
       318.53833       -47.99463         1.24864         1.24864
       331.54182       -31.99642         2.85540         2.85540
       331.54182       -15.99821         2.92008         2.92008
       318.53833       -15.99821         2.26493         2.26493
       318.53833       -31.99642         1.73969         1.73969
       331.54182       -15.99821         2.92008         2.92008
       331.54182         0.00000         2.40825         2.40825
       318.53833         0.00000         2.42574         2.42574
       318.53833       -15.99821         2.26493         2.26493
       331.54182         0.00000         2.40825         2.40825
       331.54182        15.99821         1.86798         1.86798
       318.53833        15.99821         2.45880         2.45880
       318.53833         0.00000         2.42574         2.42574
       331.54182        15.99821         1.86798         1.86798
       331.54182        31.99642         1.72922         1.72922
       318.53833        31.99642         2.49306         2.49306
       318.53833        15.99821         2.45880         2.45880
       331.54182        31.99642         1.72922         1.72922
       331.54182        47.99463         1.53492         1.53492
       318.53833        47.99463         2.27127         2.27127
       318.53833        31.99642         2.49306         2.49306
       331.54182        47.99463         1.53492         1.53492
       331.54182        63.99284         0.72912         0.72912
       318.53833        63.99284         1.31548         1.31548
       318.53833        47.99463         2.27127         2.27127
       331.54182        63.99284         0.72912         0.72912
       331.54182        79.99105        -0.17820        -0.17820
       318.53833        79.99105         0.23673         0.23673
       318.53833        63.99284         1.31548         1.31548
       331.54182        79.99105        -0.17820        -0.17820
       331.54182        95.98926        -1.03239        -1.03239
       318.53833        95.98926        -0.29663        -0.29663
       318.53833        79.99105         0.23673         0.23673
       331.54182        95.98926        -1.03239        -1.03239
       331.54182       111.98747        -1.81163        -1.81163
       318.53833       111.98747        -0.86170        -0.86170
       318.53833        95.98926        -0.29663        -0.29663
       331.54182       111.98747        -1.81163        -1.81163
       331.54182       127.98568        -1.74100        -1.74100
       318.53833       127.98568        -1.37827        -1.37827
       318.53833       111.98747        -0.86170        -0.86170
       331.54182       127.98568        -1.74100        -1.74100
       331.54182       143.98389        -0.93259        -0.93259
       318.53833       143.98389        -1.23543        -1.23543
       318.53833       127.98568        -1.37827        -1.37827
       331.54182       143.98389        -0.93259        -0.93259
       331.54182       159.98210        -0.14955        -0.14955
       318.53833       159.98210        -0.59317        -0.59317
       318.53833       143.98389        -1.23543        -1.23543
       331.54182       159.98210        -0.14955        -0.14955
       331.54182       175.98032        -0.00604        -0.00604
       318.53833       175.98032         0.05862         0.05862
       318.53833       159.98210        -0.59317        -0.59317
       331.54182       175.98032        -0.00604        -0.00604
       331.54182       191.97853        -0.85220        -0.85220
       318.53833       191.97853        -0.27370        -0.27370
       318.53833       175.98032         0.05862         0.05862
       331.54182       191.97853        -0.85220        -0.85220
       331.54182       207.97674        -1.45491        -1.45491
       318.53833       207.97674        -1.52320        -1.52320
       318.53833       191.97853        -0.27370        -0.27370
       331.54182       207.97674        -1.45491        -1.45491
       331.54182       223.97495        -1.06930        -1.06930
       318.53833       223.97495        -2.06462        -2.06462
       318.53833       207.97674        -1.52320        -1.52320
       331.54182       223.97495        -1.06930        -1.06930
       331.54182       239.97316        -1.17283        -1.17283
       318.53833       239.97316        -2.04790        -2.04790
       318.53833       223.97495        -2.06462        -2.06462
       331.54182       239.97316        -1.17283        -1.17283
       331.54182       255.97137        -2.03437        -2.03437
       318.53833       255.97137        -2.55139        -2.55139
       318.53833       239.97316        -2.04790        -2.04790
       331.54182       255.97137        -2.03437        -2.03437
       331.54182       271.96958        -2.50398        -2.50398
       318.53833       271.96958        -2.99681        -2.99681
       318.53833       255.97137        -2.55139        -2.55139
       331.54182       271.96958        -2.50398        -2.50398
       331.54182       287.96779        -2.66905        -2.66905
       318.53833       287.96779        -3.08962        -3.08962
       318.53833       271.96958        -2.99681        -2.99681
       331.54182       287.96779        -2.66905        -2.66905
       331.54182       303.96600        -2.66905        -2.66905
       318.53833       303.96600        -3.08962        -3.08962
       318.53833       287.96779        -3.08962        -3.08962
       318.53833      -303.96600         1.51103         1.51103
       318.53833      -287.96779         1.51103         1.51103
       305.53485      -287.96779         2.21935         2.21935
       305.53485      -303.96600         2.21935         2.21935
       318.53833      -287.96779         1.51103         1.51103
       318.53833      -271.96958         3.10655         3.10655
       305.53485      -271.96958         2.42237         2.42237
       305.53485      -287.96779         2.21935         2.21935
       318.53833      -271.96958         3.10655         3.10655
       318.53833      -255.97137         3.27832         3.27832
       305.53485      -255.97137         2.22838         2.22838
       305.53485      -271.96958         2.42237         2.42237
       318.53833      -255.97137         3.27832         3.27832
       318.53833      -239.97316         2.57231         2.57231
       305.53485      -239.97316         1.47114         1.47114
       305.53485      -255.97137         2.22838         2.22838
       318.53833      -239.97316         2.57231         2.57231
       318.53833      -223.97495         2.15165         2.15165
       305.53485      -223.97495         1.25132         1.25132
       305.53485      -239.97316         1.47114         1.47114
       318.53833      -223.97495         2.15165         2.15165
       318.53833      -207.97674         1.64115         1.64115
       305.53485      -207.97674         1.12443         1.12443
       305.53485      -223.97495         1.25132         1.25132
       318.53833      -207.97674         1.64115         1.64115
       318.53833      -191.97853         0.98956         0.98956
       305.53485      -191.97853         0.44626         0.44626
       305.53485      -207.97674         1.12443         1.12443
       318.53833      -191.97853         0.98956         0.98956
       318.53833      -175.98032         0.75880         0.75880
       305.53485      -175.98032         0.04766         0.04766
       305.53485      -191.97853         0.44626         0.44626
       318.53833      -175.98032         0.75880         0.75880
       318.53833      -159.98210         1.29213         1.29213
       305.53485      -159.98210         0.76925         0.76925
       305.53485      -175.98032         0.04766         0.04766
       318.53833      -159.98210         1.29213         1.29213
       318.53833      -143.98389         2.44857         2.44857
       305.53485      -143.98389         2.46778         2.46778
       305.53485      -159.98210         0.76925         0.76925
       318.53833      -143.98389         2.44857         2.44857
       318.53833      -127.98568         3.39847         3.39847
       305.53485      -127.98568         4.00755         4.00755
       305.53485      -143.98389         2.46778         2.46778
       318.53833      -127.98568         3.39847         3.39847
       318.53833      -111.98747         3.69743         3.69743
       305.53485      -111.98747         4.37127         4.37127
       305.53485      -127.98568         4.00755         4.00755
       318.53833      -111.98747         3.69743         3.69743
       318.53833       -95.98926         3.65559         3.65559
       305.53485       -95.98926         3.95747         3.95747
       305.53485      -111.98747         4.37127         4.37127
       318.53833       -95.98926         3.65559         3.65559
       318.53833       -79.99105         3.03243         3.03243
       305.53485       -79.99105         3.25981         3.25981
       305.53485       -95.98926         3.95747         3.95747
       318.53833       -79.99105         3.03243         3.03243
       318.53833       -63.99284         1.81160         1.81160
       305.53485       -63.99284         1.95457         1.95457
       305.53485       -79.99105         3.25981         3.25981
       318.53833       -63.99284         1.81160         1.81160
       318.53833       -47.99463         1.24864         1.24864
       305.53485       -47.99463         0.71165         0.71165
       305.53485       -63.99284         1.95457         1.95457
       318.53833       -47.99463         1.24864         1.24864
       318.53833       -31.99642         1.73969         1.73969
       305.53485       -31.99642         0.73479         0.73479
       305.53485       -47.99463         0.71165         0.71165
       318.53833       -31.99642         1.73969         1.73969
       318.53833       -15.99821         2.26493         2.26493
       305.53485       -15.99821         1.58553         1.58553
       305.53485       -31.99642         0.73479         0.73479
       318.53833       -15.99821         2.26493         2.26493
       318.53833         0.00000         2.42574         2.42574
       305.53485         0.00000         2.21446         2.21446
       305.53485       -15.99821         1.58553         1.58553
       318.53833         0.00000         2.42574         2.42574
       318.53833        15.99821         2.45880         2.45880
       305.53485        15.99821         2.29895         2.29895
       305.53485         0.00000         2.21446         2.21446
       318.53833        15.99821         2.45880         2.45880
       318.53833        31.99642         2.49306         2.49306
       305.53485        31.99642         1.96282         1.96282
       305.53485        15.99821         2.29895         2.29895
       318.53833        31.99642         2.49306         2.49306
       318.53833        47.99463         2.27127         2.27127
       305.53485        47.99463         1.61181         1.61181
       305.53485        31.99642         1.96282         1.96282
       318.53833        47.99463         2.27127         2.27127
       318.53833        63.99284         1.31548         1.31548
       305.53485        63.99284         1.20600         1.20600
       305.53485        47.99463         1.61181         1.61181
       318.53833        63.99284         1.31548         1.31548
       318.53833        79.99105         0.23673         0.23673
       305.53485        79.99105         0.67285         0.67285
       305.53485        63.99284         1.20600         1.20600
       318.53833        79.99105         0.23673         0.23673
       318.53833        95.98926        -0.29663        -0.29663
       305.53485        95.98926         0.45472         0.45472
       305.53485        79.99105         0.67285         0.67285
       318.53833        95.98926        -0.29663        -0.29663
       318.53833       111.98747        -0.86170        -0.86170
       305.53485       111.98747         0.16398         0.16398
       305.53485        95.98926         0.45472         0.45472
       318.53833       111.98747        -0.86170        -0.86170
       318.53833       127.98568        -1.37827        -1.37827
       305.53485       127.98568        -0.44242        -0.44242
       305.53485       111.98747         0.16398         0.16398
       318.53833       127.98568        -1.37827        -1.37827
       318.53833       143.98389        -1.23543        -1.23543
       305.53485       143.98389        -0.46094        -0.46094
       305.53485       127.98568        -0.44242        -0.44242
       318.53833       143.98389        -1.23543        -1.23543
       318.53833       159.98210        -0.59317        -0.59317
       305.53485       159.98210         0.16418         0.16418
       305.53485       143.98389        -0.46094        -0.46094
       318.53833       159.98210        -0.59317        -0.59317
       318.53833       175.98032         0.05862         0.05862
       305.53485       175.98032         0.64724         0.64724
       305.53485       159.98210         0.16418         0.16418
       318.53833       175.98032         0.05862         0.05862
       318.53833       191.97853        -0.27370        -0.27370
       305.53485       191.97853         0.16287         0.16287
       305.53485       175.98032         0.64724         0.64724
       318.53833       191.97853        -0.27370        -0.27370
       318.53833       207.97674        -1.52320        -1.52320
       305.53485       207.97674        -1.54271        -1.54271
       305.53485       191.97853         0.16287         0.16287
       318.53833       207.97674        -1.52320        -1.52320
       318.53833       223.97495        -2.06462        -2.06462
       305.53485       223.97495        -2.77245        -2.77245
       305.53485       207.97674        -1.54271        -1.54271
       318.53833       223.97495        -2.06462        -2.06462
       318.53833       239.97316        -2.04790        -2.04790
       305.53485       239.97316        -2.56828        -2.56828
       305.53485       223.97495        -2.77245        -2.77245
       318.53833       239.97316        -2.04790        -2.04790
       318.53833       255.97137        -2.55139        -2.55139
       305.53485       255.97137        -2.51036        -2.51036
       305.53485       239.97316        -2.56828        -2.56828
       318.53833       255.97137        -2.55139        -2.55139