 VARIABLES= "X","Y","Z","yita"                                                                                                                                                                                                                                                                                                                                                                                                                                                                                                  
ZONE N=                                       11856 E=                             2964 F=FEPOINT, ET=QUADRILATERAL                                                                                                                                                                                                                                                                                                                                                                                                             
       344.54530      -303.96600         0.43041         0.43041
       344.54530      -287.96779         0.43041         0.43041
       331.54182      -287.96779         0.43041         0.43041
       331.54182      -303.96600         0.43041         0.43041
       344.54530      -287.96779         0.43041         0.43041
       344.54530      -271.96958         0.83850         0.83850
       331.54182      -271.96958         0.83850         0.83850
       331.54182      -287.96779         0.43041         0.43041
       344.54530      -271.96958         0.83850         0.83850
       344.54530      -255.97137         1.27879         1.27879
       331.54182      -255.97137         1.27879         1.27879
       331.54182      -271.96958         0.83850         0.83850
       344.54530      -255.97137         1.27879         1.27879
       344.54530      -239.97316         1.61859         1.61859
       331.54182      -239.97316         1.61859         1.61859
       331.54182      -255.97137         1.27879         1.27879
       344.54530      -239.97316         1.61859         1.61859
       344.54530      -223.97495         1.07635         1.07635
       331.54182      -223.97495         1.07635         1.07635
       331.54182      -239.97316         1.61859         1.61859
       344.54530      -223.97495         1.07635         1.07635
       344.54530      -207.97674         0.13458         0.13458
       331.54182      -207.97674         0.13458         0.13458
       331.54182      -223.97495         1.07635         1.07635
       344.54530      -207.97674         0.13458         0.13458
       344.54530      -191.97853        -0.16609        -0.16609
       331.54182      -191.97853        -0.16609        -0.16609
       331.54182      -207.97674         0.13458         0.13458
       344.54530      -191.97853        -0.16609        -0.16609
       344.54530      -175.98032        -0.65195        -0.65195
       331.54182      -175.98032        -0.65195        -0.65195
       331.54182      -191.97853        -0.16609        -0.16609
       344.54530      -175.98032        -0.65195        -0.65195
       344.54530      -159.98210        -1.06347        -1.06347
       331.54182      -159.98210        -1.06347        -1.06347
       331.54182      -175.98032        -0.65195        -0.65195
       344.54530      -159.98210        -1.06347        -1.06347
       344.54530      -143.98389        -0.33514        -0.33514
       331.54182      -143.98389        -0.33514        -0.33514
       331.54182      -159.98210        -1.06347        -1.06347
       344.54530      -143.98389        -0.33514        -0.33514
       344.54530      -127.98568         0.18982         0.18982
       331.54182      -127.98568         0.18982         0.18982
       331.54182      -143.98389        -0.33514        -0.33514
       344.54530      -127.98568         0.18982         0.18982
       344.54530      -111.98747        -0.51818        -0.51818
       331.54182      -111.98747        -0.51818        -0.51818
       331.54182      -127.98568         0.18982         0.18982
       344.54530      -111.98747        -0.51818        -0.51818
       344.54530       -95.98926        -1.78437        -1.78437
       331.54182       -95.98926        -1.78437        -1.78437
       331.54182      -111.98747        -0.51818        -0.51818
       344.54530       -95.98926        -1.78437        -1.78437
       344.54530       -79.99105        -2.92252        -2.92252
       331.54182       -79.99105        -2.92252        -2.92252
       331.54182       -95.98926        -1.78437        -1.78437
       344.54530       -79.99105        -2.92252        -2.92252
       344.54530       -63.99284        -3.04765        -3.04765
       331.54182       -63.99284        -3.04765        -3.04765
       331.54182       -79.99105        -2.92252        -2.92252
       344.54530       -63.99284        -3.04765        -3.04765
       344.54530       -47.99463        -2.07274        -2.07274
       331.54182       -47.99463        -2.07274        -2.07274
       331.54182       -63.99284        -3.04765        -3.04765
       344.54530       -47.99463        -2.07274        -2.07274
       344.54530       -31.99642        -1.11738        -1.11738
       331.54182       -31.99642        -1.11738        -1.11738
       331.54182       -47.99463        -2.07274        -2.07274
       344.54530       -31.99642        -1.11738        -1.11738
       344.54530       -15.99821        -0.81071        -0.81071
       331.54182       -15.99821        -0.81071        -0.81071
       331.54182       -31.99642        -1.11738        -1.11738
       344.54530       -15.99821        -0.81071        -0.81071
       344.54530         0.00000        -0.85399        -0.85399
       331.54182         0.00000        -0.85399        -0.85399
       331.54182       -15.99821        -0.81071        -0.81071
       344.54530         0.00000        -0.85399        -0.85399
       344.54530        15.99821        -0.74479        -0.74479
       331.54182        15.99821        -0.74479        -0.74479
       331.54182         0.00000        -0.85399        -0.85399
       344.54530        15.99821        -0.74479        -0.74479
       344.54530        31.99642        -0.63074        -0.63074
       331.54182        31.99642        -0.63074        -0.63074
       331.54182        15.99821        -0.74479        -0.74479
       344.54530        31.99642        -0.63074        -0.63074
       344.54530        47.99463        -0.48654        -0.48654
       331.54182        47.99463        -0.48654        -0.48654
       331.54182        31.99642        -0.63074        -0.63074
       344.54530        47.99463        -0.48654        -0.48654
       344.54530        63.99284         0.38687         0.38687
       331.54182        63.99284         0.38687         0.38687
       331.54182        47.99463        -0.48654        -0.48654
       344.54530        63.99284         0.38687         0.38687
       344.54530        79.99105         1.54988         1.54988
       331.54182        79.99105         1.54988         1.54988
       331.54182        63.99284         0.38687         0.38687
       344.54530        79.99105         1.54988         1.54988
       344.54530        95.98926         2.14937         2.14937
       331.54182        95.98926         2.14937         2.14937
       331.54182        79.99105         1.54988         1.54988
       344.54530        95.98926         2.14937         2.14937
       344.54530       111.98747         2.27235         2.27235
       331.54182       111.98747         2.27235         2.27235
       331.54182        95.98926         2.14937         2.14937
       344.54530       111.98747         2.27235         2.27235
       344.54530       127.98568         2.08041         2.08041
       331.54182       127.98568         2.08041         2.08041
       331.54182       111.98747         2.27235         2.27235
       344.54530       127.98568         2.08041         2.08041
       344.54530       143.98389         1.95240         1.95240
       331.54182       143.98389         1.95240         1.95240
       331.54182       127.98568         2.08041         2.08041
       344.54530       143.98389         1.95240         1.95240
       344.54530       159.98210         1.96906         1.96906
       331.54182       159.98210         1.96906         1.96906
       331.54182       143.98389         1.95240         1.95240
       344.54530       159.98210         1.96906         1.96906
       344.54530       175.98032         1.98307         1.98307
       331.54182       175.98032         1.98307         1.98307
       331.54182       159.98210         1.96906         1.96906
       344.54530       175.98032         1.98307         1.98307
       344.54530       191.97853         2.34919         2.34919
       331.54182       191.97853         2.34919         2.34919
       331.54182       175.98032         1.98307         1.98307
       344.54530       191.97853         2.34919         2.34919
       344.54530       207.97674         2.26448         2.26448
       331.54182       207.97674         2.26448         2.26448
       331.54182       191.97853         2.34919         2.34919
       344.54530       207.97674         2.26448         2.26448
       344.54530       223.97495         1.59710         1.59710
       331.54182       223.97495         1.59710         1.59710
       331.54182       207.97674         2.26448         2.26448
       344.54530       223.97495         1.59710         1.59710
       344.54530       239.97316         2.04345         2.04345
       331.54182       239.97316         2.04345         2.04345
       331.54182       223.97495         1.59710         1.59710
       344.54530       239.97316         2.04345         2.04345
       344.54530       255.97137         2.84817         2.84817
       331.54182       255.97137         2.84817         2.84817
       331.54182       239.97316         2.04345         2.04345
       344.54530       255.97137         2.84817         2.84817
       344.54530       271.96958         2.67440         2.67440
       331.54182       271.96958         2.67440         2.67440
       331.54182       255.97137         2.84817         2.84817
       344.54530       271.96958         2.67440         2.67440
       344.54530       287.96779         2.54041         2.54041
       331.54182       287.96779         2.54041         2.54041
       331.54182       271.96958         2.67440         2.67440
       344.54530       287.96779         2.54041         2.54041
       344.54530       303.96600         2.54041         2.54041
       331.54182       303.96600         2.54041         2.54041
       331.54182       287.96779         2.54041         2.54041
       331.54182      -303.96600         0.43041         0.43041
       331.54182      -287.96779         0.43041         0.43041
       318.53833      -287.96779         0.34014         0.34014
       318.53833      -303.96600         0.34014         0.34014
       331.54182      -287.96779         0.43041         0.43041
       331.54182      -271.96958         0.83850         0.83850
       318.53833      -271.96958         0.27252         0.27252
       318.53833      -287.96779         0.34014         0.34014
       331.54182      -271.96958         0.83850         0.83850
       331.54182      -255.97137         1.27879         1.27879
       318.53833      -255.97137         0.62486         0.62486
       318.53833      -271.96958         0.27252         0.27252
       331.54182      -255.97137         1.27879         1.27879
       331.54182      -239.97316         1.61859         1.61859
       318.53833      -239.97316         1.28027         1.28027
       318.53833      -255.97137         0.62486         0.62486
       331.54182      -239.97316         1.61859         1.61859
       331.54182      -223.97495         1.07635         1.07635
       318.53833      -223.97495         1.43402         1.43402
       318.53833      -239.97316         1.28027         1.28027
       331.54182      -223.97495         1.07635         1.07635
       331.54182      -207.97674         0.13458         0.13458
       318.53833      -207.97674         0.39640         0.39640
       318.53833      -223.97495         1.43402         1.43402
       331.54182      -207.97674         0.13458         0.13458
       331.54182      -191.97853        -0.16609        -0.16609
       318.53833      -191.97853        -0.54190        -0.54190
       318.53833      -207.97674         0.39640         0.39640
       331.54182      -191.97853        -0.16609        -0.16609
       331.54182      -175.98032        -0.65195        -0.65195
       318.53833      -175.98032        -1.09502        -1.09502
       318.53833      -191.97853        -0.54190        -0.54190
       331.54182      -175.98032        -0.65195        -0.65195
       331.54182      -159.98210        -1.06347        -1.06347
       318.53833      -159.98210        -1.84720        -1.84720
       318.53833      -175.98032        -1.09502        -1.09502
       331.54182      -159.98210        -1.06347        -1.06347
       331.54182      -143.98389        -0.33514        -0.33514
       318.53833      -143.98389        -1.77072        -1.77072
       318.53833      -159.98210        -1.84720        -1.84720
       331.54182      -143.98389        -0.33514        -0.33514
       331.54182      -127.98568         0.18982         0.18982
       318.53833      -127.98568        -1.11387        -1.11387
       318.53833      -143.98389        -1.77072        -1.77072
       331.54182      -127.98568         0.18982         0.18982
       331.54182      -111.98747        -0.51818        -0.51818
       318.53833      -111.98747        -1.23627        -1.23627
       318.53833      -127.98568        -1.11387        -1.11387
       331.54182      -111.98747        -0.51818        -0.51818
       331.54182       -95.98926        -1.78437        -1.78437
       318.53833       -95.98926        -1.65623        -1.65623
       318.53833      -111.98747        -1.23627        -1.23627
       331.54182       -95.98926        -1.78437        -1.78437
       331.54182       -79.99105        -2.92252        -2.92252
       318.53833       -79.99105        -1.73925        -1.73925
       318.53833       -95.98926        -1.65623        -1.65623
       331.54182       -79.99105        -2.92252        -2.92252
       331.54182       -63.99284        -3.04765        -3.04765
       318.53833       -63.99284        -1.42863        -1.42863
       318.53833       -79.99105        -1.73925        -1.73925
       331.54182       -63.99284        -3.04765        -3.04765
       331.54182       -47.99463        -2.07274        -2.07274
       318.53833       -47.99463        -0.65084        -0.65084
       318.53833       -63.99284        -1.42863        -1.42863
       331.54182       -47.99463        -2.07274        -2.07274
       331.54182       -31.99642        -1.11738        -1.11738
       318.53833       -31.99642         0.01017         0.01017
       318.53833       -47.99463        -0.65084        -0.65084
       331.54182       -31.99642        -1.11738        -1.11738
       331.54182       -15.99821        -0.81071        -0.81071
       318.53833       -15.99821         0.18839         0.18839
       318.53833       -31.99642         0.01017         0.01017
       331.54182       -15.99821        -0.81071        -0.81071
       331.54182         0.00000        -0.85399        -0.85399
       318.53833         0.00000         0.24944         0.24944
       318.53833       -15.99821         0.18839         0.18839
       331.54182         0.00000        -0.85399        -0.85399
       331.54182        15.99821        -0.74479        -0.74479
       318.53833        15.99821         0.52001         0.52001
       318.53833         0.00000         0.24944         0.24944
       331.54182        15.99821        -0.74479        -0.74479
       331.54182        31.99642        -0.63074        -0.63074
       318.53833        31.99642         0.65530         0.65530
       318.53833        15.99821         0.52001         0.52001
       331.54182        31.99642        -0.63074        -0.63074
       331.54182        47.99463        -0.48654        -0.48654
       318.53833        47.99463         0.13309         0.13309
       318.53833        31.99642         0.65530         0.65530
       331.54182        47.99463        -0.48654        -0.48654
       331.54182        63.99284         0.38687         0.38687
       318.53833        63.99284        -0.27825        -0.27825
       318.53833        47.99463         0.13309         0.13309
       331.54182        63.99284         0.38687         0.38687
       331.54182        79.99105         1.54988         1.54988
       318.53833        79.99105         0.10397         0.10397
       318.53833        63.99284        -0.27825        -0.27825
       331.54182        79.99105         1.54988         1.54988
       331.54182        95.98926         2.14937         2.14937
       318.53833        95.98926         0.58268         0.58268
       318.53833        79.99105         0.10397         0.10397
       331.54182        95.98926         2.14937         2.14937
       331.54182       111.98747         2.27235         2.27235
       318.53833       111.98747         0.85548         0.85548
       318.53833        95.98926         0.58268         0.58268
       331.54182       111.98747         2.27235         2.27235
       331.54182       127.98568         2.08041         2.08041
       318.53833       127.98568         1.01488         1.01488
       318.53833       111.98747         0.85548         0.85548
       331.54182       127.98568         2.08041         2.08041
       331.54182       143.98389         1.95240         1.95240
       318.53833       143.98389         1.15029         1.15029
       318.53833       127.98568         1.01488         1.01488
       331.54182       143.98389         1.95240         1.95240
       331.54182       159.98210         1.96906         1.96906
       318.53833       159.98210         1.47764         1.47764
       318.53833       143.98389         1.15029         1.15029
       331.54182       159.98210         1.96906         1.96906
       331.54182       175.98032         1.98307         1.98307
       318.53833       175.98032         1.68414         1.68414
       318.53833       159.98210         1.47764         1.47764
       331.54182       175.98032         1.98307         1.98307
       331.54182       191.97853         2.34919         2.34919
       318.53833       191.97853         1.98567         1.98567
       318.53833       175.98032         1.68414         1.68414
       331.54182       191.97853         2.34919         2.34919
       331.54182       207.97674         2.26448         2.26448
       318.53833       207.97674         2.28806         2.28806
       318.53833       191.97853         1.98567         1.98567
       331.54182       207.97674         2.26448         2.26448
       331.54182       223.97495         1.59710         1.59710
       318.53833       223.97495         1.68084         1.68084
       318.53833       207.97674         2.28806         2.28806
       331.54182       223.97495         1.59710         1.59710
       331.54182       239.97316         2.04345         2.04345
       318.53833       239.97316         1.41339         1.41339
       318.53833       223.97495         1.68084         1.68084
       331.54182       239.97316         2.04345         2.04345
       331.54182       255.97137         2.84817         2.84817
       318.53833       255.97137         2.31920         2.31920
       318.53833       239.97316         1.41339         1.41339
       331.54182       255.97137         2.84817         2.84817
       331.54182       271.96958         2.67440         2.67440
       318.53833       271.96958         2.67205         2.67205
       318.53833       255.97137         2.31920         2.31920
       331.54182       271.96958         2.67440         2.67440
       331.54182       287.96779         2.54041         2.54041
       318.53833       287.96779         2.53370         2.53370
       318.53833       271.96958         2.67205         2.67205
       331.54182       287.96779         2.54041         2.54041
       331.54182       303.96600         2.54041         2.54041
       318.53833       303.96600         2.53370         2.53370
       318.53833       287.96779         2.53370         2.53370
       318.53833      -303.96600         0.34014         0.34014
       318.53833      -287.96779         0.34014         0.34014
       305.53485      -287.96779        -0.05272        -0.05272
       305.53485      -303.96600        -0.05272        -0.05272
       318.53833      -287.96779         0.34014         0.34014
       318.53833      -271.96958         0.27252         0.27252
       305.53485      -271.96958        -0.63780        -0.63780
       305.53485      -287.96779        -0.05272        -0.05272
       318.53833      -271.96958         0.27252         0.27252
       318.53833      -255.97137         0.62486         0.62486
       305.53485      -255.97137        -0.19974        -0.19974
       305.53485      -271.96958        -0.63780        -0.63780
       318.53833      -255.97137         0.62486         0.62486
       318.53833      -239.97316         1.28027         1.28027
       305.53485      -239.97316         0.56821         0.56821
       305.53485      -255.97137        -0.19974        -0.19974
       318.53833      -239.97316         1.28027         1.28027
       318.53833      -223.97495         1.43402         1.43402
       305.53485      -223.97495         1.18331         1.18331
       305.53485      -239.97316         0.56821         0.56821
       318.53833      -223.97495         1.43402         1.43402
       318.53833      -207.97674         0.39640         0.39640
       305.53485      -207.97674         0.63947         0.63947
       305.53485      -223.97495         1.18331         1.18331
       318.53833      -207.97674         0.39640         0.39640
       318.53833      -191.97853        -0.54190        -0.54190
       305.53485      -191.97853        -0.45430        -0.45430
       305.53485      -207.97674         0.63947         0.63947
       318.53833      -191.97853        -0.54190        -0.54190
       318.53833      -175.98032        -1.09502        -1.09502
       305.53485      -175.98032        -1.07952        -1.07952
       305.53485      -191.97853        -0.45430        -0.45430
       318.53833      -175.98032        -1.09502        -1.09502
       318.53833      -159.98210        -1.84720        -1.84720
       305.53485      -159.98210        -2.13012        -2.13012
       305.53485      -175.98032        -1.07952        -1.07952
       318.53833      -159.98210        -1.84720        -1.84720
       318.53833      -143.98389        -1.77072        -1.77072
       305.53485      -143.98389        -3.13095        -3.13095
       305.53485      -159.98210        -2.13012        -2.13012
       318.53833      -143.98389        -1.77072        -1.77072
       318.53833      -127.98568        -1.11387        -1.11387
       305.53485      -127.98568        -2.70474        -2.70474
       305.53485      -143.98389        -3.13095        -3.13095
       318.53833      -127.98568        -1.11387        -1.11387
       318.53833      -111.98747        -1.23627        -1.23627
       305.53485      -111.98747        -1.73073        -1.73073
       305.53485      -127.98568        -2.70474        -2.70474
       318.53833      -111.98747        -1.23627        -1.23627
       318.53833       -95.98926        -1.65623        -1.65623
       305.53485       -95.98926        -0.96296        -0.96296
       305.53485      -111.98747        -1.73073        -1.73073
       318.53833       -95.98926        -1.65623        -1.65623
       318.53833       -79.99105        -1.73925        -1.73925
       305.53485       -79.99105        -0.30248        -0.30248
       305.53485       -95.98926        -0.96296        -0.96296
       318.53833       -79.99105        -1.73925        -1.73925
       318.53833       -63.99284        -1.42863        -1.42863
       305.53485       -63.99284        -0.02827        -0.02827
       305.53485       -79.99105        -0.30248        -0.30248
       318.53833       -63.99284        -1.42863        -1.42863
       318.53833       -47.99463        -0.65084        -0.65084
       305.53485       -47.99463         0.25583         0.25583
       305.53485       -63.99284        -0.02827        -0.02827
       318.53833       -47.99463        -0.65084        -0.65084
       318.53833       -31.99642         0.01017         0.01017
       305.53485       -31.99642         0.89495         0.89495
       305.53485       -47.99463         0.25583         0.25583
       318.53833       -31.99642         0.01017         0.01017
       318.53833       -15.99821         0.18839         0.18839
       305.53485       -15.99821         1.48011         1.48011
       305.53485       -31.99642         0.89495         0.89495
       318.53833       -15.99821         0.18839         0.18839
       318.53833         0.00000         0.24944         0.24944
       305.53485         0.00000         1.78838         1.78838
       305.53485       -15.99821         1.48011         1.48011
       318.53833         0.00000         0.24944         0.24944
       318.53833        15.99821         0.52001         0.52001
       305.53485        15.99821         1.85270         1.85270
       305.53485         0.00000         1.78838         1.78838
       318.53833        15.99821         0.52001         0.52001
       318.53833        31.99642         0.65530         0.65530
       305.53485        31.99642         1.62391         1.62391
       305.53485        15.99821         1.85270         1.85270
       318.53833        31.99642         0.65530         0.65530
       318.53833        47.99463         0.13309         0.13309
       305.53485        47.99463         0.72030         0.72030
       305.53485        31.99642         1.62391         1.62391
       318.53833        47.99463         0.13309         0.13309
       318.53833        63.99284        -0.27825        -0.27825
       305.53485        63.99284        -0.50170        -0.50170
       305.53485        47.99463         0.72030         0.72030
       318.53833        63.99284        -0.27825        -0.27825
       318.53833        79.99105         0.10397         0.10397
       305.53485        79.99105        -0.87871        -0.87871
       305.53485        63.99284        -0.50170        -0.50170
       318.53833        79.99105         0.10397         0.10397
       318.53833        95.98926         0.58268         0.58268
       305.53485        95.98926        -0.57681        -0.57681
       305.53485        79.99105        -0.87871        -0.87871
       318.53833        95.98926         0.58268         0.58268
       318.53833       111.98747         0.85548         0.85548
       305.53485       111.98747        -0.29288        -0.29288
       305.53485        95.98926        -0.57681        -0.57681
       318.53833       111.98747         0.85548         0.85548
       318.53833       127.98568         1.01488         1.01488
       305.53485       127.98568        -0.00508        -0.00508
       305.53485       111.98747        -0.29288        -0.29288
       318.53833       127.98568         1.01488         1.01488
       318.53833       143.98389         1.15029         1.15029
       305.53485       143.98389         0.23897         0.23897
       305.53485       127.98568        -0.00508        -0.00508
       318.53833       143.98389         1.15029         1.15029
       318.53833       159.98210         1.47764         1.47764
       305.53485       159.98210         0.60260         0.60260
       305.53485       143.98389         0.23897         0.23897
       318.53833       159.98210         1.47764         1.47764
       318.53833       175.98032         1.68414         1.68414
       305.53485       175.98032         0.95381         0.95381
       305.53485       159.98210         0.60260         0.60260
       318.53833       175.98032         1.68414         1.68414
       318.53833       191.97853         1.98567         1.98567
       305.53485       191.97853         1.12092         1.12092
       305.53485       175.98032         0.95381         0.95381
       318.53833       191.97853         1.98567         1.98567
       318.53833       207.97674         2.28806         2.28806
       305.53485       207.97674         1.48319         1.48319
       305.53485       191.97853         1.12092         1.12092
       318.53833       207.97674         2.28806         2.28806
       318.53833       223.97495         1.68084         1.68084
       305.53485       223.97495         1.28210         1.28210
       305.53485       207.97674         1.48319         1.48319
       318.53833       223.97495         1.68084         1.68084
       318.53833       239.97316         1.41339         1.41339
       305.53485       239.97316         0.66385         0.66385
       305.53485       223.97495         1.28210         1.28210
       318.53833       239.97316         1.41339         1.41339
       318.53833       255.97137         2.31920         2.31920
       305.53485       255.97137         1.36394         1.36394
       305.53485       239.97316         0.66385         0.66385
       318.53833       255.97137         2.31920         2.31920