 VARIABLES= "X","Y","Z","yita"                                                                                                                                                                                                                                                                                                                                                                                                                                                                                                  
ZONE N=                                       11856 E=                             2964 F=FEPOINT, ET=QUADRILATERAL                                                                                                                                                                                                                                                                                                                                                                                                             
       344.54530      -303.96600        -4.54140        -4.54140
       344.54530      -287.96779        -4.54140        -4.54140
       331.54182      -287.96779        -4.54140        -4.54140
       331.54182      -303.96600        -4.54140        -4.54140
       344.54530      -287.96779        -4.54140        -4.54140
       344.54530      -271.96958        -3.82266        -3.82266
       331.54182      -271.96958        -3.82266        -3.82266
       331.54182      -287.96779        -4.54140        -4.54140
       344.54530      -271.96958        -3.82266        -3.82266
       344.54530      -255.97137        -2.86682        -2.86682
       331.54182      -255.97137        -2.86682        -2.86682
       331.54182      -271.96958        -3.82266        -3.82266
       344.54530      -255.97137        -2.86682        -2.86682
       344.54530      -239.97316        -1.73683        -1.73683
       331.54182      -239.97316        -1.73683        -1.73683
       331.54182      -255.97137        -2.86682        -2.86682
       344.54530      -239.97316        -1.73683        -1.73683
       344.54530      -223.97495        -0.66631        -0.66631
       331.54182      -223.97495        -0.66631        -0.66631
       331.54182      -239.97316        -1.73683        -1.73683
       344.54530      -223.97495        -0.66631        -0.66631
       344.54530      -207.97674         0.47504         0.47504
       331.54182      -207.97674         0.47504         0.47504
       331.54182      -223.97495        -0.66631        -0.66631
       344.54530      -207.97674         0.47504         0.47504
       344.54530      -191.97853         1.50686         1.50686
       331.54182      -191.97853         1.50686         1.50686
       331.54182      -207.97674         0.47504         0.47504
       344.54530      -191.97853         1.50686         1.50686
       344.54530      -175.98032         2.57930         2.57930
       331.54182      -175.98032         2.57930         2.57930
       331.54182      -191.97853         1.50686         1.50686
       344.54530      -175.98032         2.57930         2.57930
       344.54530      -159.98210         3.77129         3.77129
       331.54182      -159.98210         3.77129         3.77129
       331.54182      -175.98032         2.57930         2.57930
       344.54530      -159.98210         3.77129         3.77129
       344.54530      -143.98389         3.72535         3.72535
       331.54182      -143.98389         3.72535         3.72535
       331.54182      -159.98210         3.77129         3.77129
       344.54530      -143.98389         3.72535         3.72535
       344.54530      -127.98568         2.94155         2.94155
       331.54182      -127.98568         2.94155         2.94155
       331.54182      -143.98389         3.72535         3.72535
       344.54530      -127.98568         2.94155         2.94155
       344.54530      -111.98747         3.10608         3.10608
       331.54182      -111.98747         3.10608         3.10608
       331.54182      -127.98568         2.94155         2.94155
       344.54530      -111.98747         3.10608         3.10608
       344.54530       -95.98926         3.24239         3.24239
       331.54182       -95.98926         3.24239         3.24239
       331.54182      -111.98747         3.10608         3.10608
       344.54530       -95.98926         3.24239         3.24239
       344.54530       -79.99105         3.07721         3.07721
       331.54182       -79.99105         3.07721         3.07721
       331.54182       -95.98926         3.24239         3.24239
       344.54530       -79.99105         3.07721         3.07721
       344.54530       -63.99284         3.55463         3.55463
       331.54182       -63.99284         3.55463         3.55463
       331.54182       -79.99105         3.07721         3.07721
       344.54530       -63.99284         3.55463         3.55463
       344.54530       -47.99463         3.71798         3.71798
       331.54182       -47.99463         3.71798         3.71798
       331.54182       -63.99284         3.55463         3.55463
       344.54530       -47.99463         3.71798         3.71798
       344.54530       -31.99642         3.45427         3.45427
       331.54182       -31.99642         3.45427         3.45427
       331.54182       -47.99463         3.71798         3.71798
       344.54530       -31.99642         3.45427         3.45427
       344.54530       -15.99821         3.87608         3.87608
       331.54182       -15.99821         3.87608         3.87608
       331.54182       -31.99642         3.45427         3.45427
       344.54530       -15.99821         3.87608         3.87608
       344.54530         0.00000         4.74731         4.74731
       331.54182         0.00000         4.74731         4.74731
       331.54182       -15.99821         3.87608         3.87608
       344.54530         0.00000         4.74731         4.74731
       344.54530        15.99821         5.25684         5.25684
       331.54182        15.99821         5.25684         5.25684
       331.54182         0.00000         4.74731         4.74731
       344.54530        15.99821         5.25684         5.25684
       344.54530        31.99642         4.81255         4.81255
       331.54182        31.99642         4.81255         4.81255
       331.54182        15.99821         5.25684         5.25684
       344.54530        31.99642         4.81255         4.81255
       344.54530        47.99463         3.99929         3.99929
       331.54182        47.99463         3.99929         3.99929
       331.54182        31.99642         4.81255         4.81255
       344.54530        47.99463         3.99929         3.99929
       344.54530        63.99284         3.86075         3.86075
       331.54182        63.99284         3.86075         3.86075
       331.54182        47.99463         3.99929         3.99929
       344.54530        63.99284         3.86075         3.86075
       344.54530        79.99105         3.78555         3.78555
       331.54182        79.99105         3.78555         3.78555
       331.54182        63.99284         3.86075         3.86075
       344.54530        79.99105         3.78555         3.78555
       344.54530        95.98926         3.71358         3.71358
       331.54182        95.98926         3.71358         3.71358
       331.54182        79.99105         3.78555         3.78555
       344.54530        95.98926         3.71358         3.71358
       344.54530       111.98747         4.29940         4.29940
       331.54182       111.98747         4.29940         4.29940
       331.54182        95.98926         3.71358         3.71358
       344.54530       111.98747         4.29940         4.29940
       344.54530       127.98568         4.20292         4.20292
       331.54182       127.98568         4.20292         4.20292
       331.54182       111.98747         4.29940         4.29940
       344.54530       127.98568         4.20292         4.20292
       344.54530       143.98389         2.78978         2.78978
       331.54182       143.98389         2.78978         2.78978
       331.54182       127.98568         4.20292         4.20292
       344.54530       143.98389         2.78978         2.78978
       344.54530       159.98210         1.56471         1.56471
       331.54182       159.98210         1.56471         1.56471
       331.54182       143.98389         2.78978         2.78978
       344.54530       159.98210         1.56471         1.56471
       344.54530       175.98032         0.98444         0.98444
       331.54182       175.98032         0.98444         0.98444
       331.54182       159.98210         1.56471         1.56471
       344.54530       175.98032         0.98444         0.98444
       344.54530       191.97853         0.56702         0.56702
       331.54182       191.97853         0.56702         0.56702
       331.54182       175.98032         0.98444         0.98444
       344.54530       191.97853         0.56702         0.56702
       344.54530       207.97674         0.38198         0.38198
       331.54182       207.97674         0.38198         0.38198
       331.54182       191.97853         0.56702         0.56702
       344.54530       207.97674         0.38198         0.38198
       344.54530       223.97495         0.39121         0.39121
       331.54182       223.97495         0.39121         0.39121
       331.54182       207.97674         0.38198         0.38198
       344.54530       223.97495         0.39121         0.39121
       344.54530       239.97316         0.22461         0.22461
       331.54182       239.97316         0.22461         0.22461
       331.54182       223.97495         0.39121         0.39121
       344.54530       239.97316         0.22461         0.22461
       344.54530       255.97137        -0.63823        -0.63823
       331.54182       255.97137        -0.63823        -0.63823
       331.54182       239.97316         0.22461         0.22461
       344.54530       255.97137        -0.63823        -0.63823
       344.54530       271.96958        -2.30896        -2.30896
       331.54182       271.96958        -2.30896        -2.30896
       331.54182       255.97137        -0.63823        -0.63823
       344.54530       271.96958        -2.30896        -2.30896
       344.54530       287.96779        -3.73407        -3.73407
       331.54182       287.96779        -3.73407        -3.73407
       331.54182       271.96958        -2.30896        -2.30896
       344.54530       287.96779        -3.73407        -3.73407
       344.54530       303.96600        -3.73407        -3.73407
       331.54182       303.96600        -3.73407        -3.73407
       331.54182       287.96779        -3.73407        -3.73407
       331.54182      -303.96600        -4.54140        -4.54140
       331.54182      -287.96779        -4.54140        -4.54140
       318.53833      -287.96779        -3.23877        -3.23877
       318.53833      -303.96600        -3.23877        -3.23877
       331.54182      -287.96779        -4.54140        -4.54140
       331.54182      -271.96958        -3.82266        -3.82266
       318.53833      -271.96958        -3.19786        -3.19786
       318.53833      -287.96779        -3.23877        -3.23877
       331.54182      -271.96958        -3.82266        -3.82266
       331.54182      -255.97137        -2.86682        -2.86682
       318.53833      -255.97137        -3.01677        -3.01677
       318.53833      -271.96958        -3.19786        -3.19786
       331.54182      -255.97137        -2.86682        -2.86682
       331.54182      -239.97316        -1.73683        -1.73683
       318.53833      -239.97316        -2.68078        -2.68078
       318.53833      -255.97137        -3.01677        -3.01677
       331.54182      -239.97316        -1.73683        -1.73683
       331.54182      -223.97495        -0.66631        -0.66631
       318.53833      -223.97495        -2.28234        -2.28234
       318.53833      -239.97316        -2.68078        -2.68078
       331.54182      -223.97495        -0.66631        -0.66631
       331.54182      -207.97674         0.47504         0.47504
       318.53833      -207.97674        -1.76089        -1.76089
       318.53833      -223.97495        -2.28234        -2.28234
       331.54182      -207.97674         0.47504         0.47504
       331.54182      -191.97853         1.50686         1.50686
       318.53833      -191.97853        -1.02276        -1.02276
       318.53833      -207.97674        -1.76089        -1.76089
       331.54182      -191.97853         1.50686         1.50686
       331.54182      -175.98032         2.57930         2.57930
       318.53833      -175.98032        -0.12383        -0.12383
       318.53833      -191.97853        -1.02276        -1.02276
       331.54182      -175.98032         2.57930         2.57930
       331.54182      -159.98210         3.77129         3.77129
       318.53833      -159.98210         1.43810         1.43810
       318.53833      -175.98032        -0.12383        -0.12383
       331.54182      -159.98210         3.77129         3.77129
       331.54182      -143.98389         3.72535         3.72535
       318.53833      -143.98389         2.72867         2.72867
       318.53833      -159.98210         1.43810         1.43810
       331.54182      -143.98389         3.72535         3.72535
       331.54182      -127.98568         2.94155         2.94155
       318.53833      -127.98568         2.59861         2.59861
       318.53833      -143.98389         2.72867         2.72867
       331.54182      -127.98568         2.94155         2.94155
       331.54182      -111.98747         3.10608         3.10608
       318.53833      -111.98747         2.52857         2.52857
       318.53833      -127.98568         2.59861         2.59861
       331.54182      -111.98747         3.10608         3.10608
       331.54182       -95.98926         3.24239         3.24239
       318.53833       -95.98926         2.80900         2.80900
       318.53833      -111.98747         2.52857         2.52857
       331.54182       -95.98926         3.24239         3.24239
       331.54182       -79.99105         3.07721         3.07721
       318.53833       -79.99105         2.43419         2.43419
       318.53833       -95.98926         2.80900         2.80900
       331.54182       -79.99105         3.07721         3.07721
       331.54182       -63.99284         3.55463         3.55463
       318.53833       -63.99284         2.43535         2.43535
       318.53833       -79.99105         2.43419         2.43419
       331.54182       -63.99284         3.55463         3.55463
       331.54182       -47.99463         3.71798         3.71798
       318.53833       -47.99463         2.82500         2.82500
       318.53833       -63.99284         2.43535         2.43535
       331.54182       -47.99463         3.71798         3.71798
       331.54182       -31.99642         3.45427         3.45427
       318.53833       -31.99642         2.69599         2.69599
       318.53833       -47.99463         2.82500         2.82500
       331.54182       -31.99642         3.45427         3.45427
       331.54182       -15.99821         3.87608         3.87608
       318.53833       -15.99821         3.03320         3.03320
       318.53833       -31.99642         2.69599         2.69599
       331.54182       -15.99821         3.87608         3.87608
       331.54182         0.00000         4.74731         4.74731
       318.53833         0.00000         4.23086         4.23086
       318.53833       -15.99821         3.03320         3.03320
       331.54182         0.00000         4.74731         4.74731
       331.54182        15.99821         5.25684         5.25684
       318.53833        15.99821         5.26445         5.26445
       318.53833         0.00000         4.23086         4.23086
       331.54182        15.99821         5.25684         5.25684
       331.54182        31.99642         4.81255         4.81255
       318.53833        31.99642         5.19971         5.19971
       318.53833        15.99821         5.26445         5.26445
       331.54182        31.99642         4.81255         4.81255
       331.54182        47.99463         3.99929         3.99929
       318.53833        47.99463         4.15824         4.15824
       318.53833        31.99642         5.19971         5.19971
       331.54182        47.99463         3.99929         3.99929
       331.54182        63.99284         3.86075         3.86075
       318.53833        63.99284         3.72993         3.72993
       318.53833        47.99463         4.15824         4.15824
       331.54182        63.99284         3.86075         3.86075
       331.54182        79.99105         3.78555         3.78555
       318.53833        79.99105         4.17880         4.17880
       318.53833        63.99284         3.72993         3.72993
       331.54182        79.99105         3.78555         3.78555
       331.54182        95.98926         3.71358         3.71358
       318.53833        95.98926         4.38120         4.38120
       318.53833        79.99105         4.17880         4.17880
       331.54182        95.98926         3.71358         3.71358
       331.54182       111.98747         4.29940         4.29940
       318.53833       111.98747         4.61957         4.61957
       318.53833        95.98926         4.38120         4.38120
       331.54182       111.98747         4.29940         4.29940
       331.54182       127.98568         4.20292         4.20292
       318.53833       127.98568         4.63005         4.63005
       318.53833       111.98747         4.61957         4.61957
       331.54182       127.98568         4.20292         4.20292
       331.54182       143.98389         2.78978         2.78978
       318.53833       143.98389         3.44958         3.44958
       318.53833       127.98568         4.63005         4.63005
       331.54182       143.98389         2.78978         2.78978
       331.54182       159.98210         1.56471         1.56471
       318.53833       159.98210         2.25683         2.25683
       318.53833       143.98389         3.44958         3.44958
       331.54182       159.98210         1.56471         1.56471
       331.54182       175.98032         0.98444         0.98444
       318.53833       175.98032         2.13534         2.13534
       318.53833       159.98210         2.25683         2.25683
       331.54182       175.98032         0.98444         0.98444
       331.54182       191.97853         0.56702         0.56702
       318.53833       191.97853         2.23966         2.23966
       318.53833       175.98032         2.13534         2.13534
       331.54182       191.97853         0.56702         0.56702
       331.54182       207.97674         0.38198         0.38198
       318.53833       207.97674         1.99565         1.99565
       318.53833       191.97853         2.23966         2.23966
       331.54182       207.97674         0.38198         0.38198
       331.54182       223.97495         0.39121         0.39121
       318.53833       223.97495         1.53735         1.53735
       318.53833       207.97674         1.99565         1.99565
       331.54182       223.97495         0.39121         0.39121
       331.54182       239.97316         0.22461         0.22461
       318.53833       239.97316         0.86293         0.86293
       318.53833       223.97495         1.53735         1.53735
       331.54182       239.97316         0.22461         0.22461
       331.54182       255.97137        -0.63823        -0.63823
       318.53833       255.97137        -0.22304        -0.22304
       318.53833       239.97316         0.86293         0.86293
       331.54182       255.97137        -0.63823        -0.63823
       331.54182       271.96958        -2.30896        -2.30896
       318.53833       271.96958        -1.95842        -1.95842
       318.53833       255.97137        -0.22304        -0.22304
       331.54182       271.96958        -2.30896        -2.30896
       331.54182       287.96779        -3.73407        -3.73407
       318.53833       287.96779        -3.74446        -3.74446
       318.53833       271.96958        -1.95842        -1.95842
       331.54182       287.96779        -3.73407        -3.73407
       331.54182       303.96600        -3.73407        -3.73407
       318.53833       303.96600        -3.74446        -3.74446
       318.53833       287.96779        -3.74446        -3.74446
       318.53833      -303.96600        -3.23877        -3.23877
       318.53833      -287.96779        -3.23877        -3.23877
       305.53485      -287.96779        -1.75773        -1.75773
       305.53485      -303.96600        -1.75773        -1.75773
       318.53833      -287.96779        -3.23877        -3.23877
       318.53833      -271.96958        -3.19786        -3.19786
       305.53485      -271.96958        -2.41293        -2.41293
       305.53485      -287.96779        -1.75773        -1.75773
       318.53833      -271.96958        -3.19786        -3.19786
       318.53833      -255.97137        -3.01677        -3.01677
       305.53485      -255.97137        -2.96651        -2.96651
       305.53485      -271.96958        -2.41293        -2.41293
       318.53833      -255.97137        -3.01677        -3.01677
       318.53833      -239.97316        -2.68078        -2.68078
       305.53485      -239.97316        -3.48974        -3.48974
       305.53485      -255.97137        -2.96651        -2.96651
       318.53833      -239.97316        -2.68078        -2.68078
       318.53833      -223.97495        -2.28234        -2.28234
       305.53485      -223.97495        -3.82904        -3.82904
       305.53485      -239.97316        -3.48974        -3.48974
       318.53833      -223.97495        -2.28234        -2.28234
       318.53833      -207.97674        -1.76089        -1.76089
       305.53485      -207.97674        -3.96449        -3.96449
       305.53485      -223.97495        -3.82904        -3.82904
       318.53833      -207.97674        -1.76089        -1.76089
       318.53833      -191.97853        -1.02276        -1.02276
       305.53485      -191.97853        -3.53063        -3.53063
       305.53485      -207.97674        -3.96449        -3.96449
       318.53833      -191.97853        -1.02276        -1.02276
       318.53833      -175.98032        -0.12383        -0.12383
       305.53485      -175.98032        -2.55048        -2.55048
       305.53485      -191.97853        -3.53063        -3.53063
       318.53833      -175.98032        -0.12383        -0.12383
       318.53833      -159.98210         1.43810         1.43810
       305.53485      -159.98210        -0.82611        -0.82611
       305.53485      -175.98032        -2.55048        -2.55048
       318.53833      -159.98210         1.43810         1.43810
       318.53833      -143.98389         2.72867         2.72867
       305.53485      -143.98389         1.37278         1.37278
       305.53485      -159.98210        -0.82611        -0.82611
       318.53833      -143.98389         2.72867         2.72867
       318.53833      -127.98568         2.59861         2.59861
       305.53485      -127.98568         2.25864         2.25864
       305.53485      -143.98389         1.37278         1.37278
       318.53833      -127.98568         2.59861         2.59861
       318.53833      -111.98747         2.52857         2.52857
       305.53485      -111.98747         2.17807         2.17807
       305.53485      -127.98568         2.25864         2.25864
       318.53833      -111.98747         2.52857         2.52857
       318.53833       -95.98926         2.80900         2.80900
       305.53485       -95.98926         2.59371         2.59371
       305.53485      -111.98747         2.17807         2.17807
       318.53833       -95.98926         2.80900         2.80900
       318.53833       -79.99105         2.43419         2.43419
       305.53485       -79.99105         2.47752         2.47752
       305.53485       -95.98926         2.59371         2.59371
       318.53833       -79.99105         2.43419         2.43419
       318.53833       -63.99284         2.43535         2.43535
       305.53485       -63.99284         1.87676         1.87676
       305.53485       -79.99105         2.47752         2.47752
       318.53833       -63.99284         2.43535         2.43535
       318.53833       -47.99463         2.82500         2.82500
       305.53485       -47.99463         1.92443         1.92443
       305.53485       -63.99284         1.87676         1.87676
       318.53833       -47.99463         2.82500         2.82500
       318.53833       -31.99642         2.69599         2.69599
       305.53485       -31.99642         1.85293         1.85293
       305.53485       -47.99463         1.92443         1.92443
       318.53833       -31.99642         2.69599         2.69599
       318.53833       -15.99821         3.03320         3.03320
       305.53485       -15.99821         1.76189         1.76189
       305.53485       -31.99642         1.85293         1.85293
       318.53833       -15.99821         3.03320         3.03320
       318.53833         0.00000         4.23086         4.23086
       305.53485         0.00000         2.53792         2.53792
       305.53485       -15.99821         1.76189         1.76189
       318.53833         0.00000         4.23086         4.23086
       318.53833        15.99821         5.26445         5.26445
       305.53485        15.99821         3.59156         3.59156
       305.53485         0.00000         2.53792         2.53792
       318.53833        15.99821         5.26445         5.26445
       318.53833        31.99642         5.19971         5.19971
       305.53485        31.99642         4.07792         4.07792
       305.53485        15.99821         3.59156         3.59156
       318.53833        31.99642         5.19971         5.19971
       318.53833        47.99463         4.15824         4.15824
       305.53485        47.99463         3.70075         3.70075
       305.53485        31.99642         4.07792         4.07792
       318.53833        47.99463         4.15824         4.15824
       318.53833        63.99284         3.72993         3.72993
       305.53485        63.99284         3.35462         3.35462
       305.53485        47.99463         3.70075         3.70075
       318.53833        63.99284         3.72993         3.72993
       318.53833        79.99105         4.17880         4.17880
       305.53485        79.99105         3.83990         3.83990
       305.53485        63.99284         3.35462         3.35462
       318.53833        79.99105         4.17880         4.17880
       318.53833        95.98926         4.38120         4.38120
       305.53485        95.98926         4.05058         4.05058
       305.53485        79.99105         3.83990         3.83990
       318.53833        95.98926         4.38120         4.38120
       318.53833       111.98747         4.61957         4.61957
       305.53485       111.98747         3.86612         3.86612
       305.53485        95.98926         4.05058         4.05058
       318.53833       111.98747         4.61957         4.61957
       318.53833       127.98568         4.63005         4.63005
       305.53485       127.98568         4.20139         4.20139
       305.53485       111.98747         3.86612         3.86612
       318.53833       127.98568         4.63005         4.63005
       318.53833       143.98389         3.44958         3.44958
       305.53485       143.98389         4.15477         4.15477
       305.53485       127.98568         4.20139         4.20139
       318.53833       143.98389         3.44958         3.44958
       318.53833       159.98210         2.25683         2.25683
       305.53485       159.98210         3.44006         3.44006
       305.53485       143.98389         4.15477         4.15477
       318.53833       159.98210         2.25683         2.25683
       318.53833       175.98032         2.13534         2.13534
       305.53485       175.98032         3.25019         3.25019
       305.53485       159.98210         3.44006         3.44006
       318.53833       175.98032         2.13534         2.13534
       318.53833       191.97853         2.23966         2.23966
       305.53485       191.97853         3.37373         3.37373
       305.53485       175.98032         3.25019         3.25019
       318.53833       191.97853         2.23966         2.23966
       318.53833       207.97674         1.99565         1.99565
       305.53485       207.97674         3.00811         3.00811
       305.53485       191.97853         3.37373         3.37373
       318.53833       207.97674         1.99565         1.99565
       318.53833       223.97495         1.53735         1.53735
       305.53485       223.97495         2.29661         2.29661
       305.53485       207.97674         3.00811         3.00811
       318.53833       223.97495         1.53735         1.53735
       318.53833       239.97316         0.86293         0.86293
       305.53485       239.97316         1.48143         1.48143
       305.53485       223.97495         2.29661         2.29661
       318.53833       239.97316         0.86293         0.86293
       318.53833       255.97137        -0.22304        -0.22304
       305.53485       255.97137         0.52804         0.52804
       305.53485       239.97316         1.48143         1.48143
       318.53833       255.97137        -0.22304        -0.22304