 VARIABLES= "X","Y","Z","yita"                                                                                                                                                                                                                                                                                                                                                                                                                                                                                                  
ZONE N=                                       11856 E=                             2964 F=FEPOINT, ET=QUADRILATERAL                                                                                                                                                                                                                                                                                                                                                                                                             
       344.54530      -303.96600        -1.85103        -1.85103
       344.54530      -287.96779        -1.85103        -1.85103
       331.54182      -287.96779        -1.85103        -1.85103
       331.54182      -303.96600        -1.85103        -1.85103
       344.54530      -287.96779        -1.85103        -1.85103
       344.54530      -271.96958        -3.63889        -3.63889
       331.54182      -271.96958        -3.63889        -3.63889
       331.54182      -287.96779        -1.85103        -1.85103
       344.54530      -271.96958        -3.63889        -3.63889
       344.54530      -255.97137        -4.68455        -4.68455
       331.54182      -255.97137        -4.68455        -4.68455
       331.54182      -271.96958        -3.63889        -3.63889
       344.54530      -255.97137        -4.68455        -4.68455
       344.54530      -239.97316        -4.29445        -4.29445
       331.54182      -239.97316        -4.29445        -4.29445
       331.54182      -255.97137        -4.68455        -4.68455
       344.54530      -239.97316        -4.29445        -4.29445
       344.54530      -223.97495        -4.16101        -4.16101
       331.54182      -223.97495        -4.16101        -4.16101
       331.54182      -239.97316        -4.29445        -4.29445
       344.54530      -223.97495        -4.16101        -4.16101
       344.54530      -207.97674        -4.25985        -4.25985
       331.54182      -207.97674        -4.25985        -4.25985
       331.54182      -223.97495        -4.16101        -4.16101
       344.54530      -207.97674        -4.25985        -4.25985
       344.54530      -191.97853        -3.47812        -3.47812
       331.54182      -191.97853        -3.47812        -3.47812
       331.54182      -207.97674        -4.25985        -4.25985
       344.54530      -191.97853        -3.47812        -3.47812
       344.54530      -175.98032        -2.97485        -2.97485
       331.54182      -175.98032        -2.97485        -2.97485
       331.54182      -191.97853        -3.47812        -3.47812
       344.54530      -175.98032        -2.97485        -2.97485
       344.54530      -159.98210        -2.80452        -2.80452
       331.54182      -159.98210        -2.80452        -2.80452
       331.54182      -175.98032        -2.97485        -2.97485
       344.54530      -159.98210        -2.80452        -2.80452
       344.54530      -143.98389        -2.13295        -2.13295
       331.54182      -143.98389        -2.13295        -2.13295
       331.54182      -159.98210        -2.80452        -2.80452
       344.54530      -143.98389        -2.13295        -2.13295
       344.54530      -127.98568        -1.87861        -1.87861
       331.54182      -127.98568        -1.87861        -1.87861
       331.54182      -143.98389        -2.13295        -2.13295
       344.54530      -127.98568        -1.87861        -1.87861
       344.54530      -111.98747        -2.25401        -2.25401
       331.54182      -111.98747        -2.25401        -2.25401
       331.54182      -127.98568        -1.87861        -1.87861
       344.54530      -111.98747        -2.25401        -2.25401
       344.54530       -95.98926        -2.31343        -2.31343
       331.54182       -95.98926        -2.31343        -2.31343
       331.54182      -111.98747        -2.25401        -2.25401
       344.54530       -95.98926        -2.31343        -2.31343
       344.54530       -79.99105        -1.35906        -1.35906
       331.54182       -79.99105        -1.35906        -1.35906
       331.54182       -95.98926        -2.31343        -2.31343
       344.54530       -79.99105        -1.35906        -1.35906
       344.54530       -63.99284         0.40851         0.40851
       331.54182       -63.99284         0.40851         0.40851
       331.54182       -79.99105        -1.35906        -1.35906
       344.54530       -63.99284         0.40851         0.40851
       344.54530       -47.99463         1.57692         1.57692
       331.54182       -47.99463         1.57692         1.57692
       331.54182       -63.99284         0.40851         0.40851
       344.54530       -47.99463         1.57692         1.57692
       344.54530       -31.99642         1.97751         1.97751
       331.54182       -31.99642         1.97751         1.97751
       331.54182       -47.99463         1.57692         1.57692
       344.54530       -31.99642         1.97751         1.97751
       344.54530       -15.99821         2.33292         2.33292
       331.54182       -15.99821         2.33292         2.33292
       331.54182       -31.99642         1.97751         1.97751
       344.54530       -15.99821         2.33292         2.33292
       344.54530         0.00000         1.94952         1.94952
       331.54182         0.00000         1.94952         1.94952
       331.54182       -15.99821         2.33292         2.33292
       344.54530         0.00000         1.94952         1.94952
       344.54530        15.99821         1.19450         1.19450
       331.54182        15.99821         1.19450         1.19450
       331.54182         0.00000         1.94952         1.94952
       344.54530        15.99821         1.19450         1.19450
       344.54530        31.99642         1.28148         1.28148
       331.54182        31.99642         1.28148         1.28148
       331.54182        15.99821         1.19450         1.19450
       344.54530        31.99642         1.28148         1.28148
       344.54530        47.99463         1.24498         1.24498
       331.54182        47.99463         1.24498         1.24498
       331.54182        31.99642         1.28148         1.28148
       344.54530        47.99463         1.24498         1.24498
       344.54530        63.99284         0.25306         0.25306
       331.54182        63.99284         0.25306         0.25306
       331.54182        47.99463         1.24498         1.24498
       344.54530        63.99284         0.25306         0.25306
       344.54530        79.99105        -0.82052        -0.82052
       331.54182        79.99105        -0.82052        -0.82052
       331.54182        63.99284         0.25306         0.25306
       344.54530        79.99105        -0.82052        -0.82052
       344.54530        95.98926        -1.57976        -1.57976
       331.54182        95.98926        -1.57976        -1.57976
       331.54182        79.99105        -0.82052        -0.82052
       344.54530        95.98926        -1.57976        -1.57976
       344.54530       111.98747        -2.24108        -2.24108
       331.54182       111.98747        -2.24108        -2.24108
       331.54182        95.98926        -1.57976        -1.57976
       344.54530       111.98747        -2.24108        -2.24108
       344.54530       127.98568        -2.73744        -2.73744
       331.54182       127.98568        -2.73744        -2.73744
       331.54182       111.98747        -2.24108        -2.24108
       344.54530       127.98568        -2.73744        -2.73744
       344.54530       143.98389        -2.71101        -2.71101
       331.54182       143.98389        -2.71101        -2.71101
       331.54182       127.98568        -2.73744        -2.73744
       344.54530       143.98389        -2.71101        -2.71101
       344.54530       159.98210        -1.79182        -1.79182
       331.54182       159.98210        -1.79182        -1.79182
       331.54182       143.98389        -2.71101        -2.71101
       344.54530       159.98210        -1.79182        -1.79182
       344.54530       175.98032        -0.61411        -0.61411
       331.54182       175.98032        -0.61411        -0.61411
       331.54182       159.98210        -1.79182        -1.79182
       344.54530       175.98032        -0.61411        -0.61411
       344.54530       191.97853        -0.32699        -0.32699
       331.54182       191.97853        -0.32699        -0.32699
       331.54182       175.98032        -0.61411        -0.61411
       344.54530       191.97853        -0.32699        -0.32699
       344.54530       207.97674        -0.63496        -0.63496
       331.54182       207.97674        -0.63496        -0.63496
       331.54182       191.97853        -0.32699        -0.32699
       344.54530       207.97674        -0.63496        -0.63496
       344.54530       223.97495        -0.78184        -0.78184
       331.54182       223.97495        -0.78184        -0.78184
       331.54182       207.97674        -0.63496        -0.63496
       344.54530       223.97495        -0.78184        -0.78184
       344.54530       239.97316        -1.16252        -1.16252
       331.54182       239.97316        -1.16252        -1.16252
       331.54182       223.97495        -0.78184        -0.78184
       344.54530       239.97316        -1.16252        -1.16252
       344.54530       255.97137        -1.74228        -1.74228
       331.54182       255.97137        -1.74228        -1.74228
       331.54182       239.97316        -1.16252        -1.16252
       344.54530       255.97137        -1.74228        -1.74228
       344.54530       271.96958        -1.77653        -1.77653
       331.54182       271.96958        -1.77653        -1.77653
       331.54182       255.97137        -1.74228        -1.74228
       344.54530       271.96958        -1.77653        -1.77653
       344.54530       287.96779        -1.38847        -1.38847
       331.54182       287.96779        -1.38847        -1.38847
       331.54182       271.96958        -1.77653        -1.77653
       344.54530       287.96779        -1.38847        -1.38847
       344.54530       303.96600        -1.38847        -1.38847
       331.54182       303.96600        -1.38847        -1.38847
       331.54182       287.96779        -1.38847        -1.38847
       331.54182      -303.96600        -1.85103        -1.85103
       331.54182      -287.96779        -1.85103        -1.85103
       318.53833      -287.96779         0.30972         0.30972
       318.53833      -303.96600         0.30972         0.30972
       331.54182      -287.96779        -1.85103        -1.85103
       331.54182      -271.96958        -3.63889        -3.63889
       318.53833      -271.96958        -1.16986        -1.16986
       318.53833      -287.96779         0.30972         0.30972
       331.54182      -271.96958        -3.63889        -3.63889
       331.54182      -255.97137        -4.68455        -4.68455
       318.53833      -255.97137        -3.10717        -3.10717
       318.53833      -271.96958        -1.16986        -1.16986
       331.54182      -255.97137        -4.68455        -4.68455
       331.54182      -239.97316        -4.29445        -4.29445
       318.53833      -239.97316        -3.86023        -3.86023
       318.53833      -255.97137        -3.10717        -3.10717
       331.54182      -239.97316        -4.29445        -4.29445
       331.54182      -223.97495        -4.16101        -4.16101
       318.53833      -223.97495        -3.79696        -3.79696
       318.53833      -239.97316        -3.86023        -3.86023
       331.54182      -223.97495        -4.16101        -4.16101
       331.54182      -207.97674        -4.25985        -4.25985
       318.53833      -207.97674        -4.17221        -4.17221
       318.53833      -223.97495        -3.79696        -3.79696
       331.54182      -207.97674        -4.25985        -4.25985
       331.54182      -191.97853        -3.47812        -3.47812
       318.53833      -191.97853        -3.99856        -3.99856
       318.53833      -207.97674        -4.17221        -4.17221
       331.54182      -191.97853        -3.47812        -3.47812
       331.54182      -175.98032        -2.97485        -2.97485
       318.53833      -175.98032        -3.54088        -3.54088
       318.53833      -191.97853        -3.99856        -3.99856
       331.54182      -175.98032        -2.97485        -2.97485
       331.54182      -159.98210        -2.80452        -2.80452
       318.53833      -159.98210        -3.65696        -3.65696
       318.53833      -175.98032        -3.54088        -3.54088
       331.54182      -159.98210        -2.80452        -2.80452
       331.54182      -143.98389        -2.13295        -2.13295
       318.53833      -143.98389        -3.23265        -3.23265
       318.53833      -159.98210        -3.65696        -3.65696
       331.54182      -143.98389        -2.13295        -2.13295
       331.54182      -127.98568        -1.87861        -1.87861
       318.53833      -127.98568        -2.50955        -2.50955
       318.53833      -143.98389        -3.23265        -3.23265
       331.54182      -127.98568        -1.87861        -1.87861
       331.54182      -111.98747        -2.25401        -2.25401
       318.53833      -111.98747        -2.65215        -2.65215
       318.53833      -127.98568        -2.50955        -2.50955
       331.54182      -111.98747        -2.25401        -2.25401
       331.54182       -95.98926        -2.31343        -2.31343
       318.53833       -95.98926        -3.15795        -3.15795
       318.53833      -111.98747        -2.65215        -2.65215
       331.54182       -95.98926        -2.31343        -2.31343
       331.54182       -79.99105        -1.35906        -1.35906
       318.53833       -79.99105        -3.02120        -3.02120
       318.53833       -95.98926        -3.15795        -3.15795
       331.54182       -79.99105        -1.35906        -1.35906
       331.54182       -63.99284         0.40851         0.40851
       318.53833       -63.99284        -1.72702        -1.72702
       318.53833       -79.99105        -3.02120        -3.02120
       331.54182       -63.99284         0.40851         0.40851
       331.54182       -47.99463         1.57692         1.57692
       318.53833       -47.99463        -0.18457        -0.18457
       318.53833       -63.99284        -1.72702        -1.72702
       331.54182       -47.99463         1.57692         1.57692
       331.54182       -31.99642         1.97751         1.97751
       318.53833       -31.99642         0.56491         0.56491
       318.53833       -47.99463        -0.18457        -0.18457
       331.54182       -31.99642         1.97751         1.97751
       331.54182       -15.99821         2.33292         2.33292
       318.53833       -15.99821         1.20314         1.20314
       318.53833       -31.99642         0.56491         0.56491
       331.54182       -15.99821         2.33292         2.33292
       331.54182         0.00000         1.94952         1.94952
       318.53833         0.00000         1.52018         1.52018
       318.53833       -15.99821         1.20314         1.20314
       331.54182         0.00000         1.94952         1.94952
       331.54182        15.99821         1.19450         1.19450
       318.53833        15.99821         0.76137         0.76137
       318.53833         0.00000         1.52018         1.52018
       331.54182        15.99821         1.19450         1.19450
       331.54182        31.99642         1.28148         1.28148
       318.53833        31.99642         0.11383         0.11383
       318.53833        15.99821         0.76137         0.76137
       331.54182        31.99642         1.28148         1.28148
       331.54182        47.99463         1.24498         1.24498
       318.53833        47.99463        -0.10134        -0.10134
       318.53833        31.99642         0.11383         0.11383
       331.54182        47.99463         1.24498         1.24498
       331.54182        63.99284         0.25306         0.25306
       318.53833        63.99284        -0.97307        -0.97307
       318.53833        47.99463        -0.10134        -0.10134
       331.54182        63.99284         0.25306         0.25306
       331.54182        79.99105        -0.82052        -0.82052
       318.53833        79.99105        -2.12180        -2.12180
       318.53833        63.99284        -0.97307        -0.97307
       331.54182        79.99105        -0.82052        -0.82052
       331.54182        95.98926        -1.57976        -1.57976
       318.53833        95.98926        -2.77342        -2.77342
       318.53833        79.99105        -2.12180        -2.12180
       331.54182        95.98926        -1.57976        -1.57976
       331.54182       111.98747        -2.24108        -2.24108
       318.53833       111.98747        -3.09267        -3.09267
       318.53833        95.98926        -2.77342        -2.77342
       331.54182       111.98747        -2.24108        -2.24108
       331.54182       127.98568        -2.73744        -2.73744
       318.53833       127.98568        -3.16517        -3.16517
       318.53833       111.98747        -3.09267        -3.09267
       331.54182       127.98568        -2.73744        -2.73744
       331.54182       143.98389        -2.71101        -2.71101
       318.53833       143.98389        -2.77782        -2.77782
       318.53833       127.98568        -3.16517        -3.16517
       331.54182       143.98389        -2.71101        -2.71101
       331.54182       159.98210        -1.79182        -1.79182
       318.53833       159.98210        -1.64248        -1.64248
       318.53833       143.98389        -2.77782        -2.77782
       331.54182       159.98210        -1.79182        -1.79182
       331.54182       175.98032        -0.61411        -0.61411
       318.53833       175.98032         0.02014         0.02014
       318.53833       159.98210        -1.64248        -1.64248
       331.54182       175.98032        -0.61411        -0.61411
       331.54182       191.97853        -0.32699        -0.32699
       318.53833       191.97853         1.07229         1.07229
       318.53833       175.98032         0.02014         0.02014
       331.54182       191.97853        -0.32699        -0.32699
       331.54182       207.97674        -0.63496        -0.63496
       318.53833       207.97674         1.11139         1.11139
       318.53833       191.97853         1.07229         1.07229
       331.54182       207.97674        -0.63496        -0.63496
       331.54182       223.97495        -0.78184        -0.78184
       318.53833       223.97495         0.91409         0.91409
       318.53833       207.97674         1.11139         1.11139
       331.54182       223.97495        -0.78184        -0.78184
       331.54182       239.97316        -1.16252        -1.16252
       318.53833       239.97316         0.33200         0.33200
       318.53833       223.97495         0.91409         0.91409
       331.54182       239.97316        -1.16252        -1.16252
       331.54182       255.97137        -1.74228        -1.74228
       318.53833       255.97137        -1.08218        -1.08218
       318.53833       239.97316         0.33200         0.33200
       331.54182       255.97137        -1.74228        -1.74228
       331.54182       271.96958        -1.77653        -1.77653
       318.53833       271.96958        -2.23022        -2.23022
       318.53833       255.97137        -1.08218        -1.08218
       331.54182       271.96958        -1.77653        -1.77653
       331.54182       287.96779        -1.38847        -1.38847
       318.53833       287.96779        -2.10572        -2.10572
       318.53833       271.96958        -2.23022        -2.23022
       331.54182       287.96779        -1.38847        -1.38847
       331.54182       303.96600        -1.38847        -1.38847
       318.53833       303.96600        -2.10572        -2.10572
       318.53833       287.96779        -2.10572        -2.10572
       318.53833      -303.96600         0.30972         0.30972
       318.53833      -287.96779         0.30972         0.30972
       305.53485      -287.96779         2.85431         2.85431
       305.53485      -303.96600         2.85431         2.85431
       318.53833      -287.96779         0.30972         0.30972
       318.53833      -271.96958        -1.16986        -1.16986
       305.53485      -271.96958         1.56013         1.56013
       305.53485      -287.96779         2.85431         2.85431
       318.53833      -271.96958        -1.16986        -1.16986
       318.53833      -255.97137        -3.10717        -3.10717
       305.53485      -255.97137        -0.66663        -0.66663
       305.53485      -271.96958         1.56013         1.56013
       318.53833      -255.97137        -3.10717        -3.10717
       318.53833      -239.97316        -3.86023        -3.86023
       305.53485      -239.97316        -2.41812        -2.41812
       305.53485      -255.97137        -0.66663        -0.66663
       318.53833      -239.97316        -3.86023        -3.86023
       318.53833      -223.97495        -3.79696        -3.79696
       305.53485      -223.97495        -2.80751        -2.80751
       305.53485      -239.97316        -2.41812        -2.41812
       318.53833      -223.97495        -3.79696        -3.79696
       318.53833      -207.97674        -4.17221        -4.17221
       305.53485      -207.97674        -3.52393        -3.52393
       305.53485      -223.97495        -2.80751        -2.80751
       318.53833      -207.97674        -4.17221        -4.17221
       318.53833      -191.97853        -3.99856        -3.99856
       305.53485      -191.97853        -4.44379        -4.44379
       305.53485      -207.97674        -3.52393        -3.52393
       318.53833      -191.97853        -3.99856        -3.99856
       318.53833      -175.98032        -3.54088        -3.54088
       305.53485      -175.98032        -4.46516        -4.46516
       305.53485      -191.97853        -4.44379        -4.44379
       318.53833      -175.98032        -3.54088        -3.54088
       318.53833      -159.98210        -3.65696        -3.65696
       305.53485      -159.98210        -4.53618        -4.53618
       305.53485      -175.98032        -4.46516        -4.46516
       318.53833      -159.98210        -3.65696        -3.65696
       318.53833      -143.98389        -3.23265        -3.23265
       305.53485      -143.98389        -4.39471        -4.39471
       305.53485      -159.98210        -4.53618        -4.53618
       318.53833      -143.98389        -3.23265        -3.23265
       318.53833      -127.98568        -2.50955        -2.50955
       305.53485      -127.98568        -3.41940        -3.41940
       305.53485      -143.98389        -4.39471        -4.39471
       318.53833      -127.98568        -2.50955        -2.50955
       318.53833      -111.98747        -2.65215        -2.65215
       305.53485      -111.98747        -2.89843        -2.89843
       305.53485      -127.98568        -3.41940        -3.41940
       318.53833      -111.98747        -2.65215        -2.65215
       318.53833       -95.98926        -3.15795        -3.15795
       305.53485       -95.98926        -3.19378        -3.19378
       305.53485      -111.98747        -2.89843        -2.89843
       318.53833       -95.98926        -3.15795        -3.15795
       318.53833       -79.99105        -3.02120        -3.02120
       305.53485       -79.99105        -3.43923        -3.43923
       305.53485       -95.98926        -3.19378        -3.19378
       318.53833       -79.99105        -3.02120        -3.02120
       318.53833       -63.99284        -1.72702        -1.72702
       305.53485       -63.99284        -2.90295        -2.90295
       305.53485       -79.99105        -3.43923        -3.43923
       318.53833       -63.99284        -1.72702        -1.72702
       318.53833       -47.99463        -0.18457        -0.18457
       305.53485       -47.99463        -1.70724        -1.70724
       305.53485       -63.99284        -2.90295        -2.90295
       318.53833       -47.99463        -0.18457        -0.18457
       318.53833       -31.99642         0.56491         0.56491
       305.53485       -31.99642        -1.09808        -1.09808
       305.53485       -47.99463        -1.70724        -1.70724
       318.53833       -31.99642         0.56491         0.56491
       318.53833       -15.99821         1.20314         1.20314
       305.53485       -15.99821        -1.03281        -1.03281
       305.53485       -31.99642        -1.09808        -1.09808
       318.53833       -15.99821         1.20314         1.20314
       318.53833         0.00000         1.52018         1.52018
       305.53485         0.00000        -0.89011        -0.89011
       305.53485       -15.99821        -1.03281        -1.03281
       318.53833         0.00000         1.52018         1.52018
       318.53833        15.99821         0.76137         0.76137
       305.53485        15.99821        -1.48652        -1.48652
       305.53485         0.00000        -0.89011        -0.89011
       318.53833        15.99821         0.76137         0.76137
       318.53833        31.99642         0.11383         0.11383
       305.53485        31.99642        -2.30834        -2.30834
       305.53485        15.99821        -1.48652        -1.48652
       318.53833        31.99642         0.11383         0.11383
       318.53833        47.99463        -0.10134        -0.10134
       305.53485        47.99463        -2.07036        -2.07036
       305.53485        31.99642        -2.30834        -2.30834
       318.53833        47.99463        -0.10134        -0.10134
       318.53833        63.99284        -0.97307        -0.97307
       305.53485        63.99284        -1.69506        -1.69506
       305.53485        47.99463        -2.07036        -2.07036
       318.53833        63.99284        -0.97307        -0.97307
       318.53833        79.99105        -2.12180        -2.12180
       305.53485        79.99105        -1.91955        -1.91955
       305.53485        63.99284        -1.69506        -1.69506
       318.53833        79.99105        -2.12180        -2.12180
       318.53833        95.98926        -2.77342        -2.77342
       305.53485        95.98926        -2.01832        -2.01832
       305.53485        79.99105        -1.91955        -1.91955
       318.53833        95.98926        -2.77342        -2.77342
       318.53833       111.98747        -3.09267        -3.09267
       305.53485       111.98747        -1.86309        -1.86309
       305.53485        95.98926        -2.01832        -2.01832
       318.53833       111.98747        -3.09267        -3.09267
       318.53833       127.98568        -3.16517        -3.16517
       305.53485       127.98568        -1.82577        -1.82577
       305.53485       111.98747        -1.86309        -1.86309
       318.53833       127.98568        -3.16517        -3.16517
       318.53833       143.98389        -2.77782        -2.77782
       305.53485       143.98389        -1.92280        -1.92280
       305.53485       127.98568        -1.82577        -1.82577
       318.53833       143.98389        -2.77782        -2.77782
       318.53833       159.98210        -1.64248        -1.64248
       305.53485       159.98210        -1.74805        -1.74805
       305.53485       143.98389        -1.92280        -1.92280
       318.53833       159.98210        -1.64248        -1.64248
       318.53833       175.98032         0.02014         0.02014
       305.53485       175.98032        -0.73416        -0.73416
       305.53485       159.98210        -1.74805        -1.74805
       318.53833       175.98032         0.02014         0.02014
       318.53833       191.97853         1.07229         1.07229
       305.53485       191.97853         0.67690         0.67690
       305.53485       175.98032        -0.73416        -0.73416
       318.53833       191.97853         1.07229         1.07229
       318.53833       207.97674         1.11139         1.11139
       305.53485       207.97674         1.37179         1.37179
       305.53485       191.97853         0.67690         0.67690
       318.53833       207.97674         1.11139         1.11139
       318.53833       223.97495         0.91409         0.91409
       305.53485       223.97495         1.34327         1.34327
       305.53485       207.97674         1.37179         1.37179
       318.53833       223.97495         0.91409         0.91409
       318.53833       239.97316         0.33200         0.33200
       305.53485       239.97316         0.85908         0.85908
       305.53485       223.97495         1.34327         1.34327
       318.53833       239.97316         0.33200         0.33200
       318.53833       255.97137        -1.08218        -1.08218
       305.53485       255.97137        -0.46069        -0.46069
       305.53485       239.97316         0.85908         0.85908
       318.53833       255.97137        -1.08218        -1.08218