 VARIABLES= "X","Y","Z","yita"                                                                                                                                                                                                                                                                                                                                                                                                                                                                                                  
ZONE N=                                       11856 E=                             2964 F=FEPOINT, ET=QUADRILATERAL                                                                                                                                                                                                                                                                                                                                                                                                             
       344.54530      -303.96600        -0.35459        -0.35459
       344.54530      -287.96779        -0.35459        -0.35459
       331.54182      -287.96779        -0.35459        -0.35459
       331.54182      -303.96600        -0.35459        -0.35459
       344.54530      -287.96779        -0.35459        -0.35459
       344.54530      -271.96958        -1.53951        -1.53951
       331.54182      -271.96958        -1.53951        -1.53951
       331.54182      -287.96779        -0.35459        -0.35459
       344.54530      -271.96958        -1.53951        -1.53951
       344.54530      -255.97137        -1.71048        -1.71048
       331.54182      -255.97137        -1.71048        -1.71048
       331.54182      -271.96958        -1.53951        -1.53951
       344.54530      -255.97137        -1.71048        -1.71048
       344.54530      -239.97316        -1.67619        -1.67619
       331.54182      -239.97316        -1.67619        -1.67619
       331.54182      -255.97137        -1.71048        -1.71048
       344.54530      -239.97316        -1.67619        -1.67619
       344.54530      -223.97495        -1.22248        -1.22248
       331.54182      -223.97495        -1.22248        -1.22248
       331.54182      -239.97316        -1.67619        -1.67619
       344.54530      -223.97495        -1.22248        -1.22248
       344.54530      -207.97674         0.40017         0.40017
       331.54182      -207.97674         0.40017         0.40017
       331.54182      -223.97495        -1.22248        -1.22248
       344.54530      -207.97674         0.40017         0.40017
       344.54530      -191.97853         1.70177         1.70177
       331.54182      -191.97853         1.70177         1.70177
       331.54182      -207.97674         0.40017         0.40017
       344.54530      -191.97853         1.70177         1.70177
       344.54530      -175.98032         2.03097         2.03097
       331.54182      -175.98032         2.03097         2.03097
       331.54182      -191.97853         1.70177         1.70177
       344.54530      -175.98032         2.03097         2.03097
       344.54530      -159.98210         2.23512         2.23512
       331.54182      -159.98210         2.23512         2.23512
       331.54182      -175.98032         2.03097         2.03097
       344.54530      -159.98210         2.23512         2.23512
       344.54530      -143.98389         2.41269         2.41269
       331.54182      -143.98389         2.41269         2.41269
       331.54182      -159.98210         2.23512         2.23512
       344.54530      -143.98389         2.41269         2.41269
       344.54530      -127.98568         2.81185         2.81185
       331.54182      -127.98568         2.81185         2.81185
       331.54182      -143.98389         2.41269         2.41269
       344.54530      -127.98568         2.81185         2.81185
       344.54530      -111.98747         3.46752         3.46752
       331.54182      -111.98747         3.46752         3.46752
       331.54182      -127.98568         2.81185         2.81185
       344.54530      -111.98747         3.46752         3.46752
       344.54530       -95.98926         3.69440         3.69440
       331.54182       -95.98926         3.69440         3.69440
       331.54182      -111.98747         3.46752         3.46752
       344.54530       -95.98926         3.69440         3.69440
       344.54530       -79.99105         3.41328         3.41328
       331.54182       -79.99105         3.41328         3.41328
       331.54182       -95.98926         3.69440         3.69440
       344.54530       -79.99105         3.41328         3.41328
       344.54530       -63.99284         2.98797         2.98797
       331.54182       -63.99284         2.98797         2.98797
       331.54182       -79.99105         3.41328         3.41328
       344.54530       -63.99284         2.98797         2.98797
       344.54530       -47.99463         2.57946         2.57946
       331.54182       -47.99463         2.57946         2.57946
       331.54182       -63.99284         2.98797         2.98797
       344.54530       -47.99463         2.57946         2.57946
       344.54530       -31.99642         2.00744         2.00744
       331.54182       -31.99642         2.00744         2.00744
       331.54182       -47.99463         2.57946         2.57946
       344.54530       -31.99642         2.00744         2.00744
       344.54530       -15.99821         1.38837         1.38837
       331.54182       -15.99821         1.38837         1.38837
       331.54182       -31.99642         2.00744         2.00744
       344.54530       -15.99821         1.38837         1.38837
       344.54530         0.00000         1.17092         1.17092
       331.54182         0.00000         1.17092         1.17092
       331.54182       -15.99821         1.38837         1.38837
       344.54530         0.00000         1.17092         1.17092
       344.54530        15.99821         0.75781         0.75781
       331.54182        15.99821         0.75781         0.75781
       331.54182         0.00000         1.17092         1.17092
       344.54530        15.99821         0.75781         0.75781
       344.54530        31.99642        -0.23879        -0.23879
       331.54182        31.99642        -0.23879        -0.23879
       331.54182        15.99821         0.75781         0.75781
       344.54530        31.99642        -0.23879        -0.23879
       344.54530        47.99463        -0.96087        -0.96087
       331.54182        47.99463        -0.96087        -0.96087
       331.54182        31.99642        -0.23879        -0.23879
       344.54530        47.99463        -0.96087        -0.96087
       344.54530        63.99284        -1.07149        -1.07149
       331.54182        63.99284        -1.07149        -1.07149
       331.54182        47.99463        -0.96087        -0.96087
       344.54530        63.99284        -1.07149        -1.07149
       344.54530        79.99105        -0.74001        -0.74001
       331.54182        79.99105        -0.74001        -0.74001
       331.54182        63.99284        -1.07149        -1.07149
       344.54530        79.99105        -0.74001        -0.74001
       344.54530        95.98926        -0.34984        -0.34984
       331.54182        95.98926        -0.34984        -0.34984
       331.54182        79.99105        -0.74001        -0.74001
       344.54530        95.98926        -0.34984        -0.34984
       344.54530       111.98747        -0.17453        -0.17453
       331.54182       111.98747        -0.17453        -0.17453
       331.54182        95.98926        -0.34984        -0.34984
       344.54530       111.98747        -0.17453        -0.17453
       344.54530       127.98568         0.25937         0.25937
       331.54182       127.98568         0.25937         0.25937
       331.54182       111.98747        -0.17453        -0.17453
       344.54530       127.98568         0.25937         0.25937
       344.54530       143.98389         0.62424         0.62424
       331.54182       143.98389         0.62424         0.62424
       331.54182       127.98568         0.25937         0.25937
       344.54530       143.98389         0.62424         0.62424
       344.54530       159.98210         1.01214         1.01214
       331.54182       159.98210         1.01214         1.01214
       331.54182       143.98389         0.62424         0.62424
       344.54530       159.98210         1.01214         1.01214
       344.54530       175.98032         2.54430         2.54430
       331.54182       175.98032         2.54430         2.54430
       331.54182       159.98210         1.01214         1.01214
       344.54530       175.98032         2.54430         2.54430
       344.54530       191.97853         3.87244         3.87244
       331.54182       191.97853         3.87244         3.87244
       331.54182       175.98032         2.54430         2.54430
       344.54530       191.97853         3.87244         3.87244
       344.54530       207.97674         3.78271         3.78271
       331.54182       207.97674         3.78271         3.78271
       331.54182       191.97853         3.87244         3.87244
       344.54530       207.97674         3.78271         3.78271
       344.54530       223.97495         3.62903         3.62903
       331.54182       223.97495         3.62903         3.62903
       331.54182       207.97674         3.78271         3.78271
       344.54530       223.97495         3.62903         3.62903
       344.54530       239.97316         3.26126         3.26126
       331.54182       239.97316         3.26126         3.26126
       331.54182       223.97495         3.62903         3.62903
       344.54530       239.97316         3.26126         3.26126
       344.54530       255.97137         2.24943         2.24943
       331.54182       255.97137         2.24943         2.24943
       331.54182       239.97316         3.26126         3.26126
       344.54530       255.97137         2.24943         2.24943
       344.54530       271.96958         1.73054         1.73054
       331.54182       271.96958         1.73054         1.73054
       331.54182       255.97137         2.24943         2.24943
       344.54530       271.96958         1.73054         1.73054
       344.54530       287.96779         1.43489         1.43489
       331.54182       287.96779         1.43489         1.43489
       331.54182       271.96958         1.73054         1.73054
       344.54530       287.96779         1.43489         1.43489
       344.54530       303.96600         1.43489         1.43489
       331.54182       303.96600         1.43489         1.43489
       331.54182       287.96779         1.43489         1.43489
       331.54182      -303.96600        -0.35459        -0.35459
       331.54182      -287.96779        -0.35459        -0.35459
       318.53833      -287.96779        -0.16713        -0.16713
       318.53833      -303.96600        -0.16713        -0.16713
       331.54182      -287.96779        -0.35459        -0.35459
       331.54182      -271.96958        -1.53951        -1.53951
       318.53833      -271.96958        -0.92708        -0.92708
       318.53833      -287.96779        -0.16713        -0.16713
       331.54182      -271.96958        -1.53951        -1.53951
       331.54182      -255.97137        -1.71048        -1.71048
       318.53833      -255.97137        -0.94443        -0.94443
       318.53833      -271.96958        -0.92708        -0.92708
       331.54182      -255.97137        -1.71048        -1.71048
       331.54182      -239.97316        -1.67619        -1.67619
       318.53833      -239.97316        -0.37802        -0.37802
       318.53833      -255.97137        -0.94443        -0.94443
       331.54182      -239.97316        -1.67619        -1.67619
       331.54182      -223.97495        -1.22248        -1.22248
       318.53833      -223.97495         0.01506         0.01506
       318.53833      -239.97316        -0.37802        -0.37802
       331.54182      -223.97495        -1.22248        -1.22248
       331.54182      -207.97674         0.40017         0.40017
       318.53833      -207.97674         1.12643         1.12643
       318.53833      -223.97495         0.01506         0.01506
       331.54182      -207.97674         0.40017         0.40017
       331.54182      -191.97853         1.70177         1.70177
       318.53833      -191.97853         2.30616         2.30616
       318.53833      -207.97674         1.12643         1.12643
       331.54182      -191.97853         1.70177         1.70177
       331.54182      -175.98032         2.03097         2.03097
       318.53833      -175.98032         2.04030         2.04030
       318.53833      -191.97853         2.30616         2.30616
       331.54182      -175.98032         2.03097         2.03097
       331.54182      -159.98210         2.23512         2.23512
       318.53833      -159.98210         1.18280         1.18280
       318.53833      -175.98032         2.04030         2.04030
       331.54182      -159.98210         2.23512         2.23512
       331.54182      -143.98389         2.41269         2.41269
       318.53833      -143.98389         0.75070         0.75070
       318.53833      -159.98210         1.18280         1.18280
       331.54182      -143.98389         2.41269         2.41269
       331.54182      -127.98568         2.81185         2.81185
       318.53833      -127.98568         0.95042         0.95042
       318.53833      -143.98389         0.75070         0.75070
       331.54182      -127.98568         2.81185         2.81185
       331.54182      -111.98747         3.46752         3.46752
       318.53833      -111.98747         1.85261         1.85261
       318.53833      -127.98568         0.95042         0.95042
       331.54182      -111.98747         3.46752         3.46752
       331.54182       -95.98926         3.69440         3.69440
       318.53833       -95.98926         2.66650         2.66650
       318.53833      -111.98747         1.85261         1.85261
       331.54182       -95.98926         3.69440         3.69440
       331.54182       -79.99105         3.41328         3.41328
       318.53833       -79.99105         2.89662         2.89662
       318.53833       -95.98926         2.66650         2.66650
       331.54182       -79.99105         3.41328         3.41328
       331.54182       -63.99284         2.98797         2.98797
       318.53833       -63.99284         2.92158         2.92158
       318.53833       -79.99105         2.89662         2.89662
       331.54182       -63.99284         2.98797         2.98797
       331.54182       -47.99463         2.57946         2.57946
       318.53833       -47.99463         2.87261         2.87261
       318.53833       -63.99284         2.92158         2.92158
       331.54182       -47.99463         2.57946         2.57946
       331.54182       -31.99642         2.00744         2.00744
       318.53833       -31.99642         2.30446         2.30446
       318.53833       -47.99463         2.87261         2.87261
       331.54182       -31.99642         2.00744         2.00744
       331.54182       -15.99821         1.38837         1.38837
       318.53833       -15.99821         0.97227         0.97227
       318.53833       -31.99642         2.30446         2.30446
       331.54182       -15.99821         1.38837         1.38837
       331.54182         0.00000         1.17092         1.17092
       318.53833         0.00000        -0.14034        -0.14034
       318.53833       -15.99821         0.97227         0.97227
       331.54182         0.00000         1.17092         1.17092
       331.54182        15.99821         0.75781         0.75781
       318.53833        15.99821        -0.35353        -0.35353
       318.53833         0.00000        -0.14034        -0.14034
       331.54182        15.99821         0.75781         0.75781
       331.54182        31.99642        -0.23879        -0.23879
       318.53833        31.99642        -0.35689        -0.35689
       318.53833        15.99821        -0.35353        -0.35353
       331.54182        31.99642        -0.23879        -0.23879
       331.54182        47.99463        -0.96087        -0.96087
       318.53833        47.99463        -0.38856        -0.38856
       318.53833        31.99642        -0.35689        -0.35689
       331.54182        47.99463        -0.96087        -0.96087
       331.54182        63.99284        -1.07149        -1.07149
       318.53833        63.99284        -0.42784        -0.42784
       318.53833        47.99463        -0.38856        -0.38856
       331.54182        63.99284        -1.07149        -1.07149
       331.54182        79.99105        -0.74001        -0.74001
       318.53833        79.99105        -0.61449        -0.61449
       318.53833        63.99284        -0.42784        -0.42784
       331.54182        79.99105        -0.74001        -0.74001
       331.54182        95.98926        -0.34984        -0.34984
       318.53833        95.98926        -0.64919        -0.64919
       318.53833        79.99105        -0.61449        -0.61449
       331.54182        95.98926        -0.34984        -0.34984
       331.54182       111.98747        -0.17453        -0.17453
       318.53833       111.98747        -0.48111        -0.48111
       318.53833        95.98926        -0.64919        -0.64919
       331.54182       111.98747        -0.17453        -0.17453
       331.54182       127.98568         0.25937         0.25937
       318.53833       127.98568         0.15485         0.15485
       318.53833       111.98747        -0.48111        -0.48111
       331.54182       127.98568         0.25937         0.25937
       331.54182       143.98389         0.62424         0.62424
       318.53833       143.98389         1.13316         1.13316
       318.53833       127.98568         0.15485         0.15485
       331.54182       143.98389         0.62424         0.62424
       331.54182       159.98210         1.01214         1.01214
       318.53833       159.98210         1.69094         1.69094
       318.53833       143.98389         1.13316         1.13316
       331.54182       159.98210         1.01214         1.01214
       331.54182       175.98032         2.54430         2.54430
       318.53833       175.98032         2.76497         2.76497
       318.53833       159.98210         1.69094         1.69094
       331.54182       175.98032         2.54430         2.54430
       331.54182       191.97853         3.87244         3.87244
       318.53833       191.97853         4.43739         4.43739
       318.53833       175.98032         2.76497         2.76497
       331.54182       191.97853         3.87244         3.87244
       331.54182       207.97674         3.78271         3.78271
       318.53833       207.97674         4.73689         4.73689
       318.53833       191.97853         4.43739         4.43739
       331.54182       207.97674         3.78271         3.78271
       331.54182       223.97495         3.62903         3.62903
       318.53833       223.97495         4.15166         4.15166
       318.53833       207.97674         4.73689         4.73689
       331.54182       223.97495         3.62903         3.62903
       331.54182       239.97316         3.26126         3.26126
       318.53833       239.97316         3.69659         3.69659
       318.53833       223.97495         4.15166         4.15166
       331.54182       239.97316         3.26126         3.26126
       331.54182       255.97137         2.24943         2.24943
       318.53833       255.97137         2.61099         2.61099
       318.53833       239.97316         3.69659         3.69659
       331.54182       255.97137         2.24943         2.24943
       331.54182       271.96958         1.73054         1.73054
       318.53833       271.96958         1.59000         1.59000
       318.53833       255.97137         2.61099         2.61099
       331.54182       271.96958         1.73054         1.73054
       331.54182       287.96779         1.43489         1.43489
       318.53833       287.96779         1.28236         1.28236
       318.53833       271.96958         1.59000         1.59000
       331.54182       287.96779         1.43489         1.43489
       331.54182       303.96600         1.43489         1.43489
       318.53833       303.96600         1.28236         1.28236
       318.53833       287.96779         1.28236         1.28236
       318.53833      -303.96600        -0.16713        -0.16713
       318.53833      -287.96779        -0.16713        -0.16713
       305.53485      -287.96779         0.54781         0.54781
       305.53485      -303.96600         0.54781         0.54781
       318.53833      -287.96779        -0.16713        -0.16713
       318.53833      -271.96958        -0.92708        -0.92708
       305.53485      -271.96958         0.19658         0.19658
       305.53485      -287.96779         0.54781         0.54781
       318.53833      -271.96958        -0.92708        -0.92708
       318.53833      -255.97137        -0.94443        -0.94443
       305.53485      -255.97137        -0.06909        -0.06909
       305.53485      -271.96958         0.19658         0.19658
       318.53833      -255.97137        -0.94443        -0.94443
       318.53833      -239.97316        -0.37802        -0.37802
       305.53485      -239.97316         0.59371         0.59371
       305.53485      -255.97137        -0.06909        -0.06909
       318.53833      -239.97316        -0.37802        -0.37802
       318.53833      -223.97495         0.01506         0.01506
       305.53485      -223.97495         1.05625         1.05625
       305.53485      -239.97316         0.59371         0.59371
       318.53833      -223.97495         0.01506         0.01506
       318.53833      -207.97674         1.12643         1.12643
       305.53485      -207.97674         1.35178         1.35178
       305.53485      -223.97495         1.05625         1.05625
       318.53833      -207.97674         1.12643         1.12643
       318.53833      -191.97853         2.30616         2.30616
       305.53485      -191.97853         2.01887         2.01887
       305.53485      -207.97674         1.35178         1.35178
       318.53833      -191.97853         2.30616         2.30616
       318.53833      -175.98032         2.04030         2.04030
       305.53485      -175.98032         1.79925         1.79925
       305.53485      -191.97853         2.01887         2.01887
       318.53833      -175.98032         2.04030         2.04030
       318.53833      -159.98210         1.18280         1.18280
       305.53485      -159.98210         0.78301         0.78301
       305.53485      -175.98032         1.79925         1.79925
       318.53833      -159.98210         1.18280         1.18280
       318.53833      -143.98389         0.75070         0.75070
       305.53485      -143.98389         0.27123         0.27123
       305.53485      -159.98210         0.78301         0.78301
       318.53833      -143.98389         0.75070         0.75070
       318.53833      -127.98568         0.95042         0.95042
       305.53485      -127.98568         0.33723         0.33723
       305.53485      -143.98389         0.27123         0.27123
       318.53833      -127.98568         0.95042         0.95042
       318.53833      -111.98747         1.85261         1.85261
       305.53485      -111.98747         0.94921         0.94921
       305.53485      -127.98568         0.33723         0.33723
       318.53833      -111.98747         1.85261         1.85261
       318.53833       -95.98926         2.66650         2.66650
       305.53485       -95.98926         1.83740         1.83740
       305.53485      -111.98747         0.94921         0.94921
       318.53833       -95.98926         2.66650         2.66650
       318.53833       -79.99105         2.89662         2.89662
       305.53485       -79.99105         2.26331         2.26331
       305.53485       -95.98926         1.83740         1.83740
       318.53833       -79.99105         2.89662         2.89662
       318.53833       -63.99284         2.92158         2.92158
       305.53485       -63.99284         2.12267         2.12267
       305.53485       -79.99105         2.26331         2.26331
       318.53833       -63.99284         2.92158         2.92158
       318.53833       -47.99463         2.87261         2.87261
       305.53485       -47.99463         1.54626         1.54626
       305.53485       -63.99284         2.12267         2.12267
       318.53833       -47.99463         2.87261         2.87261
       318.53833       -31.99642         2.30446         2.30446
       305.53485       -31.99642         0.54632         0.54632
       305.53485       -47.99463         1.54626         1.54626
       318.53833       -31.99642         2.30446         2.30446
       318.53833       -15.99821         0.97227         0.97227
       305.53485       -15.99821        -0.73727        -0.73727
       305.53485       -31.99642         0.54632         0.54632
       318.53833       -15.99821         0.97227         0.97227
       318.53833         0.00000        -0.14034        -0.14034
       305.53485         0.00000        -1.47672        -1.47672
       305.53485       -15.99821        -0.73727        -0.73727
       318.53833         0.00000        -0.14034        -0.14034
       318.53833        15.99821        -0.35353        -0.35353
       305.53485        15.99821        -0.86401        -0.86401
       305.53485         0.00000        -1.47672        -1.47672
       318.53833        15.99821        -0.35353        -0.35353
       318.53833        31.99642        -0.35689        -0.35689
       305.53485        31.99642         0.09548         0.09548
       305.53485        15.99821        -0.86401        -0.86401
       318.53833        31.99642        -0.35689        -0.35689
       318.53833        47.99463        -0.38856        -0.38856
       305.53485        47.99463         0.27937         0.27937
       305.53485        31.99642         0.09548         0.09548
       318.53833        47.99463        -0.38856        -0.38856
       318.53833        63.99284        -0.42784        -0.42784
       305.53485        63.99284         0.03321         0.03321
       305.53485        47.99463         0.27937         0.27937
       318.53833        63.99284        -0.42784        -0.42784
       318.53833        79.99105        -0.61449        -0.61449
       305.53485        79.99105        -0.18313        -0.18313
       305.53485        63.99284         0.03321         0.03321
       318.53833        79.99105        -0.61449        -0.61449
       318.53833        95.98926        -0.64919        -0.64919
       305.53485        95.98926         0.04392         0.04392
       305.53485        79.99105        -0.18313        -0.18313
       318.53833        95.98926        -0.64919        -0.64919
       318.53833       111.98747        -0.48111        -0.48111
       305.53485       111.98747         0.68131         0.68131
       305.53485        95.98926         0.04392         0.04392
       318.53833       111.98747        -0.48111        -0.48111
       318.53833       127.98568         0.15485         0.15485
       305.53485       127.98568         1.37929         1.37929
       305.53485       111.98747         0.68131         0.68131
       318.53833       127.98568         0.15485         0.15485
       318.53833       143.98389         1.13316         1.13316
       305.53485       143.98389         2.24110         2.24110
       305.53485       127.98568         1.37929         1.37929
       318.53833       143.98389         1.13316         1.13316
       318.53833       159.98210         1.69094         1.69094
       305.53485       159.98210         2.65424         2.65424
       305.53485       143.98389         2.24110         2.24110
       318.53833       159.98210         1.69094         1.69094
       318.53833       175.98032         2.76497         2.76497
       305.53485       175.98032         2.84951         2.84951
       305.53485       159.98210         2.65424         2.65424
       318.53833       175.98032         2.76497         2.76497
       318.53833       191.97853         4.43739         4.43739
       305.53485       191.97853         4.02621         4.02621
       305.53485       175.98032         2.84951         2.84951
       318.53833       191.97853         4.43739         4.43739
       318.53833       207.97674         4.73689         4.73689
       305.53485       207.97674         4.79051         4.79051
       305.53485       191.97853         4.02621         4.02621
       318.53833       207.97674         4.73689         4.73689
       318.53833       223.97495         4.15166         4.15166
       305.53485       223.97495         4.16072         4.16072
       305.53485       207.97674         4.79051         4.79051
       318.53833       223.97495         4.15166         4.15166
       318.53833       239.97316         3.69659         3.69659
       305.53485       239.97316         3.57676         3.57676
       305.53485       223.97495         4.16072         4.16072
       318.53833       239.97316         3.69659         3.69659
       318.53833       255.97137         2.61099         2.61099
       305.53485       255.97137         2.82997         2.82997
       305.53485       239.97316         3.57676         3.57676
       318.53833       255.97137         2.61099         2.61099