 VARIABLES= "X","Y","Z","yita"                                                                                                                                                                                                                                                                                                                                                                                                                                                                                                  
ZONE N=                                       11856 E=                             2964 F=FEPOINT, ET=QUADRILATERAL                                                                                                                                                                                                                                                                                                                                                                                                             
       344.54530      -303.96600         1.35726         1.35726
       344.54530      -287.96779         1.35726         1.35726
       331.54182      -287.96779         1.35726         1.35726
       331.54182      -303.96600         1.35726         1.35726
       344.54530      -287.96779         1.35726         1.35726
       344.54530      -271.96958         3.18687         3.18687
       331.54182      -271.96958         3.18687         3.18687
       331.54182      -287.96779         1.35726         1.35726
       344.54530      -271.96958         3.18687         3.18687
       344.54530      -255.97137         3.75878         3.75878
       331.54182      -255.97137         3.75878         3.75878
       331.54182      -271.96958         3.18687         3.18687
       344.54530      -255.97137         3.75878         3.75878
       344.54530      -239.97316         3.01127         3.01127
       331.54182      -239.97316         3.01127         3.01127
       331.54182      -255.97137         3.75878         3.75878
       344.54530      -239.97316         3.01127         3.01127
       344.54530      -223.97495         2.38037         2.38037
       331.54182      -223.97495         2.38037         2.38037
       331.54182      -239.97316         3.01127         3.01127
       344.54530      -223.97495         2.38037         2.38037
       344.54530      -207.97674         1.84302         1.84302
       331.54182      -207.97674         1.84302         1.84302
       331.54182      -223.97495         2.38037         2.38037
       344.54530      -207.97674         1.84302         1.84302
       344.54530      -191.97853         1.18555         1.18555
       331.54182      -191.97853         1.18555         1.18555
       331.54182      -207.97674         1.84302         1.84302
       344.54530      -191.97853         1.18555         1.18555
       344.54530      -175.98032         0.86280         0.86280
       331.54182      -175.98032         0.86280         0.86280
       331.54182      -191.97853         1.18555         1.18555
       344.54530      -175.98032         0.86280         0.86280
       344.54530      -159.98210         1.24472         1.24472
       331.54182      -159.98210         1.24472         1.24472
       331.54182      -175.98032         0.86280         0.86280
       344.54530      -159.98210         1.24472         1.24472
       344.54530      -143.98389         2.32625         2.32625
       331.54182      -143.98389         2.32625         2.32625
       331.54182      -159.98210         1.24472         1.24472
       344.54530      -143.98389         2.32625         2.32625
       344.54530      -127.98568         3.36517         3.36517
       331.54182      -127.98568         3.36517         3.36517
       331.54182      -143.98389         2.32625         2.32625
       344.54530      -127.98568         3.36517         3.36517
       344.54530      -111.98747         3.71645         3.71645
       331.54182      -111.98747         3.71645         3.71645
       331.54182      -127.98568         3.36517         3.36517
       344.54530      -111.98747         3.71645         3.71645
       344.54530       -95.98926         3.66552         3.66552
       331.54182       -95.98926         3.66552         3.66552
       331.54182      -111.98747         3.71645         3.71645
       344.54530       -95.98926         3.66552         3.66552
       344.54530       -79.99105         3.16264         3.16264
       331.54182       -79.99105         3.16264         3.16264
       331.54182       -95.98926         3.66552         3.66552
       344.54530       -79.99105         3.16264         3.16264
       344.54530       -63.99284         1.96224         1.96224
       331.54182       -63.99284         1.96224         1.96224
       331.54182       -79.99105         3.16264         3.16264
       344.54530       -63.99284         1.96224         1.96224
       344.54530       -47.99463         1.13929         1.13929
       331.54182       -47.99463         1.13929         1.13929
       331.54182       -63.99284         1.96224         1.96224
       344.54530       -47.99463         1.13929         1.13929
       344.54530       -31.99642         1.48472         1.48472
       331.54182       -31.99642         1.48472         1.48472
       331.54182       -47.99463         1.13929         1.13929
       344.54530       -31.99642         1.48472         1.48472
       344.54530       -15.99821         2.13264         2.13264
       331.54182       -15.99821         2.13264         2.13264
       331.54182       -31.99642         1.48472         1.48472
       344.54530       -15.99821         2.13264         2.13264
       344.54530         0.00000         2.41085         2.41085
       331.54182         0.00000         2.41085         2.41085
       331.54182       -15.99821         2.13264         2.13264
       344.54530         0.00000         2.41085         2.41085
       344.54530        15.99821         2.44515         2.44515
       331.54182        15.99821         2.44515         2.44515
       331.54182         0.00000         2.41085         2.41085
       344.54530        15.99821         2.44515         2.44515
       344.54530        31.99642         2.42735         2.42735
       331.54182        31.99642         2.42735         2.42735
       331.54182        15.99821         2.44515         2.44515
       344.54530        31.99642         2.42735         2.42735
       344.54530        47.99463         2.26240         2.26240
       331.54182        47.99463         2.26240         2.26240
       331.54182        31.99642         2.42735         2.42735
       344.54530        47.99463         2.26240         2.26240
       344.54530        63.99284         1.40694         1.40694
       331.54182        63.99284         1.40694         1.40694
       331.54182        47.99463         2.26240         2.26240
       344.54530        63.99284         1.40694         1.40694
       344.54530        79.99105         0.20012         0.20012
       331.54182        79.99105         0.20012         0.20012
       331.54182        63.99284         1.40694         1.40694
       344.54530        79.99105         0.20012         0.20012
       344.54530        95.98926        -0.47404        -0.47404
       331.54182        95.98926        -0.47404        -0.47404
       331.54182        79.99105         0.20012         0.20012
       344.54530        95.98926        -0.47404        -0.47404
       344.54530       111.98747        -1.01128        -1.01128
       331.54182       111.98747        -1.01128        -1.01128
       331.54182        95.98926        -0.47404        -0.47404
       344.54530       111.98747        -1.01128        -1.01128
       344.54530       127.98568        -1.59548        -1.59548
       331.54182       127.98568        -1.59548        -1.59548
       331.54182       111.98747        -1.01128        -1.01128
       344.54530       127.98568        -1.59548        -1.59548
       344.54530       143.98389        -1.57679        -1.57679
       331.54182       143.98389        -1.57679        -1.57679
       331.54182       127.98568        -1.59548        -1.59548
       344.54530       143.98389        -1.57679        -1.57679
       344.54530       159.98210        -0.94329        -0.94329
       331.54182       159.98210        -0.94329        -0.94329
       331.54182       143.98389        -1.57679        -1.57679
       344.54530       159.98210        -0.94329        -0.94329
       344.54530       175.98032        -0.09389        -0.09389
       331.54182       175.98032        -0.09389        -0.09389
       331.54182       159.98210        -0.94329        -0.94329
       344.54530       175.98032        -0.09389        -0.09389
       344.54530       191.97853        -0.03569        -0.03569
       331.54182       191.97853        -0.03569        -0.03569
       331.54182       175.98032        -0.09389        -0.09389
       344.54530       191.97853        -0.03569        -0.03569
       344.54530       207.97674        -1.21735        -1.21735
       331.54182       207.97674        -1.21735        -1.21735
       331.54182       191.97853        -0.03569        -0.03569
       344.54530       207.97674        -1.21735        -1.21735
       344.54530       223.97495        -2.06557        -2.06557
       331.54182       223.97495        -2.06557        -2.06557
       331.54182       207.97674        -1.21735        -1.21735
       344.54530       223.97495        -2.06557        -2.06557
       344.54530       239.97316        -2.08648        -2.08648
       331.54182       239.97316        -2.08648        -2.08648
       331.54182       223.97495        -2.06557        -2.06557
       344.54530       239.97316        -2.08648        -2.08648
       344.54530       255.97137        -2.42921        -2.42921
       331.54182       255.97137        -2.42921        -2.42921
       331.54182       239.97316        -2.08648        -2.08648
       344.54530       255.97137        -2.42921        -2.42921
       344.54530       271.96958        -2.86126        -2.86126
       331.54182       271.96958        -2.86126        -2.86126
       331.54182       255.97137        -2.42921        -2.42921
       344.54530       271.96958        -2.86126        -2.86126
       344.54530       287.96779        -2.91630        -2.91630
       331.54182       287.96779        -2.91630        -2.91630
       331.54182       271.96958        -2.86126        -2.86126
       344.54530       287.96779        -2.91630        -2.91630
       344.54530       303.96600        -2.91630        -2.91630
       331.54182       303.96600        -2.91630        -2.91630
       331.54182       287.96779        -2.91630        -2.91630
       331.54182      -303.96600         1.35726         1.35726
       331.54182      -287.96779         1.35726         1.35726
       318.53833      -287.96779         1.91720         1.91720
       318.53833      -303.96600         1.91720         1.91720
       331.54182      -287.96779         1.35726         1.35726
       331.54182      -271.96958         3.18687         3.18687
       318.53833      -271.96958         2.22749         2.22749
       318.53833      -287.96779         1.91720         1.91720
       331.54182      -271.96958         3.18687         3.18687
       331.54182      -255.97137         3.75878         3.75878
       318.53833      -255.97137         2.48191         2.48191
       318.53833      -271.96958         2.22749         2.22749
       331.54182      -255.97137         3.75878         3.75878
       331.54182      -239.97316         3.01127         3.01127
       318.53833      -239.97316         1.97137         1.97137
       318.53833      -255.97137         2.48191         2.48191
       331.54182      -239.97316         3.01127         3.01127
       331.54182      -223.97495         2.38037         2.38037
       318.53833      -223.97495         1.66766         1.66766
       318.53833      -239.97316         1.97137         1.97137
       331.54182      -223.97495         2.38037         2.38037
       331.54182      -207.97674         1.84302         1.84302
       318.53833      -207.97674         1.52096         1.52096
       318.53833      -223.97495         1.66766         1.66766
       331.54182      -207.97674         1.84302         1.84302
       331.54182      -191.97853         1.18555         1.18555
       318.53833      -191.97853         0.76311         0.76311
       318.53833      -207.97674         1.52096         1.52096
       331.54182      -191.97853         1.18555         1.18555
       331.54182      -175.98032         0.86280         0.86280
       318.53833      -175.98032         0.03467         0.03467
       318.53833      -191.97853         0.76311         0.76311
       331.54182      -175.98032         0.86280         0.86280
       331.54182      -159.98210         1.24472         1.24472
       318.53833      -159.98210         0.37655         0.37655
       318.53833      -175.98032         0.03467         0.03467
       331.54182      -159.98210         1.24472         1.24472
       331.54182      -143.98389         2.32625         2.32625
       318.53833      -143.98389         1.94701         1.94701
       318.53833      -159.98210         0.37655         0.37655
       331.54182      -143.98389         2.32625         2.32625
       331.54182      -127.98568         3.36517         3.36517
       318.53833      -127.98568         3.74589         3.74589
       318.53833      -143.98389         1.94701         1.94701
       331.54182      -127.98568         3.36517         3.36517
       331.54182      -111.98747         3.71645         3.71645
       318.53833      -111.98747         4.44841         4.44841
       318.53833      -127.98568         3.74589         3.74589
       331.54182      -111.98747         3.71645         3.71645
       331.54182       -95.98926         3.66552         3.66552
       318.53833       -95.98926         4.10335         4.10335
       318.53833      -111.98747         4.44841         4.44841
       331.54182       -95.98926         3.66552         3.66552
       331.54182       -79.99105         3.16264         3.16264
       318.53833       -79.99105         3.39894         3.39894
       318.53833       -95.98926         4.10335         4.10335
       331.54182       -79.99105         3.16264         3.16264
       331.54182       -63.99284         1.96224         1.96224
       318.53833       -63.99284         2.13059         2.13059
       318.53833       -79.99105         3.39894         3.39894
       331.54182       -63.99284         1.96224         1.96224
       331.54182       -47.99463         1.13929         1.13929
       318.53833       -47.99463         0.68071         0.68071
       318.53833       -63.99284         2.13059         2.13059
       331.54182       -47.99463         1.13929         1.13929
       331.54182       -31.99642         1.48472         1.48472
       318.53833       -31.99642         0.38717         0.38717
       318.53833       -47.99463         0.68071         0.68071
       331.54182       -31.99642         1.48472         1.48472
       331.54182       -15.99821         2.13264         2.13264
       318.53833       -15.99821         1.20927         1.20927
       318.53833       -31.99642         0.38717         0.38717
       331.54182       -15.99821         2.13264         2.13264
       331.54182         0.00000         2.41085         2.41085
       318.53833         0.00000         2.03059         2.03059
       318.53833       -15.99821         1.20927         1.20927
       331.54182         0.00000         2.41085         2.41085
       331.54182        15.99821         2.44515         2.44515
       318.53833        15.99821         2.30689         2.30689
       318.53833         0.00000         2.03059         2.03059
       331.54182        15.99821         2.44515         2.44515
       331.54182        31.99642         2.42735         2.42735
       318.53833        31.99642         2.03739         2.03739
       318.53833        15.99821         2.30689         2.30689
       331.54182        31.99642         2.42735         2.42735
       331.54182        47.99463         2.26240         2.26240
       318.53833        47.99463         1.64982         1.64982
       318.53833        31.99642         2.03739         2.03739
       331.54182        47.99463         2.26240         2.26240
       331.54182        63.99284         1.40694         1.40694
       318.53833        63.99284         1.26908         1.26908
       318.53833        47.99463         1.64982         1.64982
       331.54182        63.99284         1.40694         1.40694
       331.54182        79.99105         0.20012         0.20012
       318.53833        79.99105         0.71512         0.71512
       318.53833        63.99284         1.26908         1.26908
       331.54182        79.99105         0.20012         0.20012
       331.54182        95.98926        -0.47404        -0.47404
       318.53833        95.98926         0.40520         0.40520
       318.53833        79.99105         0.71512         0.71512
       331.54182        95.98926        -0.47404        -0.47404
       331.54182       111.98747        -1.01128        -1.01128
       318.53833       111.98747         0.14290         0.14290
       318.53833        95.98926         0.40520         0.40520
       331.54182       111.98747        -1.01128        -1.01128
       331.54182       127.98568        -1.59548        -1.59548
       318.53833       127.98568        -0.55368        -0.55368
       318.53833       111.98747         0.14290         0.14290
       331.54182       127.98568        -1.59548        -1.59548
       331.54182       143.98389        -1.57679        -1.57679
       318.53833       143.98389        -0.87559        -0.87559
       318.53833       127.98568        -0.55368        -0.55368
       331.54182       143.98389        -1.57679        -1.57679
       331.54182       159.98210        -0.94329        -0.94329
       318.53833       159.98210        -0.39819        -0.39819
       318.53833       143.98389        -0.87559        -0.87559
       331.54182       159.98210        -0.94329        -0.94329
       331.54182       175.98032        -0.09389        -0.09389
       318.53833       175.98032         0.25431         0.25431
       318.53833       159.98210        -0.39819        -0.39819
       331.54182       175.98032        -0.09389        -0.09389
       331.54182       191.97853        -0.03569        -0.03569
       318.53833       191.97853         0.22624         0.22624
       318.53833       175.98032         0.25431         0.25431
       331.54182       191.97853        -0.03569        -0.03569
       331.54182       207.97674        -1.21735        -1.21735
       318.53833       207.97674        -1.16148        -1.16148
       318.53833       191.97853         0.22624         0.22624
       331.54182       207.97674        -1.21735        -1.21735
       331.54182       223.97495        -2.06557        -2.06557
       318.53833       223.97495        -2.62517        -2.62517
       318.53833       207.97674        -1.16148        -1.16148
       331.54182       223.97495        -2.06557        -2.06557
       331.54182       239.97316        -2.08648        -2.08648
       318.53833       239.97316        -2.63109        -2.63109
       318.53833       223.97495        -2.62517        -2.62517
       331.54182       239.97316        -2.08648        -2.08648
       331.54182       255.97137        -2.42921        -2.42921
       318.53833       255.97137        -2.36361        -2.36361
       318.53833       239.97316        -2.63109        -2.63109
       331.54182       255.97137        -2.42921        -2.42921
       331.54182       271.96958        -2.86126        -2.86126
       318.53833       271.96958        -2.79309        -2.79309
       318.53833       255.97137        -2.36361        -2.36361
       331.54182       271.96958        -2.86126        -2.86126
       331.54182       287.96779        -2.91630        -2.91630
       318.53833       287.96779        -3.11523        -3.11523
       318.53833       271.96958        -2.79309        -2.79309
       331.54182       287.96779        -2.91630        -2.91630
       331.54182       303.96600        -2.91630        -2.91630
       318.53833       303.96600        -3.11523        -3.11523
       318.53833       287.96779        -3.11523        -3.11523
       318.53833      -303.96600         1.91720         1.91720
       318.53833      -287.96779         1.91720         1.91720
       305.53485      -287.96779         2.38225         2.38225
       305.53485      -303.96600         2.38225         2.38225
       318.53833      -287.96779         1.91720         1.91720
       318.53833      -271.96958         2.22749         2.22749
       305.53485      -271.96958         1.89409         1.89409
       305.53485      -287.96779         2.38225         2.38225
       318.53833      -271.96958         2.22749         2.22749
       318.53833      -255.97137         2.48191         2.48191
       305.53485      -255.97137         2.17257         2.17257
       305.53485      -271.96958         1.89409         1.89409
       318.53833      -255.97137         2.48191         2.48191
       318.53833      -239.97316         1.97137         1.97137
       305.53485      -239.97316         1.84976         1.84976
       305.53485      -255.97137         2.17257         2.17257
       318.53833      -239.97316         1.97137         1.97137
       318.53833      -223.97495         1.66766         1.66766
       305.53485      -223.97495         0.99296         0.99296
       305.53485      -239.97316         1.84976         1.84976
       318.53833      -223.97495         1.66766         1.66766
       318.53833      -207.97674         1.52096         1.52096
       305.53485      -207.97674         0.60258         0.60258
       305.53485      -223.97495         0.99296         0.99296
       318.53833      -207.97674         1.52096         1.52096
       318.53833      -191.97853         0.76311         0.76311
       305.53485      -191.97853         0.45062         0.45062
       305.53485      -207.97674         0.60258         0.60258
       318.53833      -191.97853         0.76311         0.76311
       318.53833      -175.98032         0.03467         0.03467
       305.53485      -175.98032         0.51602         0.51602
       305.53485      -191.97853         0.45062         0.45062
       318.53833      -175.98032         0.03467         0.03467
       318.53833      -159.98210         0.37655         0.37655
       305.53485      -159.98210         1.19539         1.19539
       305.53485      -175.98032         0.51602         0.51602
       318.53833      -159.98210         0.37655         0.37655
       318.53833      -143.98389         1.94701         1.94701
       305.53485      -143.98389         2.34906         2.34906
       305.53485      -159.98210         1.19539         1.19539
       318.53833      -143.98389         1.94701         1.94701
       318.53833      -127.98568         3.74589         3.74589
       305.53485      -127.98568         3.45037         3.45037
       305.53485      -143.98389         2.34906         2.34906
       318.53833      -127.98568         3.74589         3.74589
       318.53833      -111.98747         4.44841         4.44841
       305.53485      -111.98747         3.75644         3.75644
       305.53485      -127.98568         3.45037         3.45037
       318.53833      -111.98747         4.44841         4.44841
       318.53833       -95.98926         4.10335         4.10335
       305.53485       -95.98926         3.18581         3.18581
       305.53485      -111.98747         3.75644         3.75644
       318.53833       -95.98926         4.10335         4.10335
       318.53833       -79.99105         3.39894         3.39894
       305.53485       -79.99105         2.54021         2.54021
       305.53485       -95.98926         3.18581         3.18581
       318.53833       -79.99105         3.39894         3.39894
       318.53833       -63.99284         2.13059         2.13059
       305.53485       -63.99284         1.84527         1.84527
       305.53485       -79.99105         2.54021         2.54021
       318.53833       -63.99284         2.13059         2.13059
       318.53833       -47.99463         0.68071         0.68071
       305.53485       -47.99463         0.76808         0.76808
       305.53485       -63.99284         1.84527         1.84527
       318.53833       -47.99463         0.68071         0.68071
       318.53833       -31.99642         0.38717         0.38717
       305.53485       -31.99642         0.27708         0.27708
       305.53485       -47.99463         0.76808         0.76808
       318.53833       -31.99642         0.38717         0.38717
       318.53833       -15.99821         1.20927         1.20927
       305.53485       -15.99821         0.89732         0.89732
       305.53485       -31.99642         0.27708         0.27708
       318.53833       -15.99821         1.20927         1.20927
       318.53833         0.00000         2.03059         2.03059
       305.53485         0.00000         1.48033         1.48033
       305.53485       -15.99821         0.89732         0.89732
       318.53833         0.00000         2.03059         2.03059
       318.53833        15.99821         2.30689         2.30689
       305.53485        15.99821         1.30227         1.30227
       305.53485         0.00000         1.48033         1.48033
       318.53833        15.99821         2.30689         2.30689
       318.53833        31.99642         2.03739         2.03739
       305.53485        31.99642         0.77936         0.77936
       305.53485        15.99821         1.30227         1.30227
       318.53833        31.99642         2.03739         2.03739
       318.53833        47.99463         1.64982         1.64982
       305.53485        47.99463         0.61622         0.61622
       305.53485        31.99642         0.77936         0.77936
       318.53833        47.99463         1.64982         1.64982
       318.53833        63.99284         1.26908         1.26908
       305.53485        63.99284         0.96333         0.96333
       305.53485        47.99463         0.61622         0.61622
       318.53833        63.99284         1.26908         1.26908
       318.53833        79.99105         0.71512         0.71512
       305.53485        79.99105         1.03079         1.03079
       305.53485        63.99284         0.96333         0.96333
       318.53833        79.99105         0.71512         0.71512
       318.53833        95.98926         0.40520         0.40520
       305.53485        95.98926         0.73145         0.73145
       305.53485        79.99105         1.03079         1.03079
       318.53833        95.98926         0.40520         0.40520
       318.53833       111.98747         0.14290         0.14290
       305.53485       111.98747         0.66246         0.66246
       305.53485        95.98926         0.73145         0.73145
       318.53833       111.98747         0.14290         0.14290
       318.53833       127.98568        -0.55368        -0.55368
       305.53485       127.98568         0.50867         0.50867
       305.53485       111.98747         0.66246         0.66246
       318.53833       127.98568        -0.55368        -0.55368
       318.53833       143.98389        -0.87559        -0.87559
       305.53485       143.98389         0.27401         0.27401
       305.53485       127.98568         0.50867         0.50867
       318.53833       143.98389        -0.87559        -0.87559
       318.53833       159.98210        -0.39819        -0.39819
       305.53485       159.98210         0.38247         0.38247
       305.53485       143.98389         0.27401         0.27401
       318.53833       159.98210        -0.39819        -0.39819
       318.53833       175.98032         0.25431         0.25431
       305.53485       175.98032         0.52110         0.52110
       305.53485       159.98210         0.38247         0.38247
       318.53833       175.98032         0.25431         0.25431
       318.53833       191.97853         0.22624         0.22624
       305.53485       191.97853         0.40211         0.40211
       305.53485       175.98032         0.52110         0.52110
       318.53833       191.97853         0.22624         0.22624
       318.53833       207.97674        -1.16148        -1.16148
       305.53485       207.97674        -0.46143        -0.46143
       305.53485       191.97853         0.40211         0.40211
       318.53833       207.97674        -1.16148        -1.16148
       318.53833       223.97495        -2.62517        -2.62517
       305.53485       223.97495        -1.93707        -1.93707
       305.53485       207.97674        -0.46143        -0.46143
       318.53833       223.97495        -2.62517        -2.62517
       318.53833       239.97316        -2.63109        -2.63109
       305.53485       239.97316        -2.45322        -2.45322
       305.53485       223.97495        -1.93707        -1.93707
       318.53833       239.97316        -2.63109        -2.63109
       318.53833       255.97137        -2.36361        -2.36361
       305.53485       255.97137        -2.08458        -2.08458
       305.53485       239.97316        -2.45322        -2.45322
       318.53833       255.97137        -2.36361        -2.36361