 VARIABLES= "X","Y","Z","yita"                                                                                                                                                                                                                                                                                                                                                                                                                                                                                                  
ZONE N=                                       11856 E=                             2964 F=FEPOINT, ET=QUADRILATERAL                                                                                                                                                                                                                                                                                                                                                                                                             
       344.54530      -303.96600         1.23208         1.23208
       344.54530      -287.96779         1.23208         1.23208
       331.54182      -287.96779         1.23208         1.23208
       331.54182      -303.96600         1.23208         1.23208
       344.54530      -287.96779         1.23208         1.23208
       344.54530      -271.96958         1.60687         1.60687
       331.54182      -271.96958         1.60687         1.60687
       331.54182      -287.96779         1.23208         1.23208
       344.54530      -271.96958         1.60687         1.60687
       344.54530      -255.97137         2.72374         2.72374
       331.54182      -255.97137         2.72374         2.72374
       331.54182      -271.96958         1.60687         1.60687
       344.54530      -255.97137         2.72374         2.72374
       344.54530      -239.97316         3.10992         3.10992
       331.54182      -239.97316         3.10992         3.10992
       331.54182      -255.97137         2.72374         2.72374
       344.54530      -239.97316         3.10992         3.10992
       344.54530      -223.97495         3.06228         3.06228
       331.54182      -223.97495         3.06228         3.06228
       331.54182      -239.97316         3.10992         3.10992
       344.54530      -223.97495         3.06228         3.06228
       344.54530      -207.97674         3.33050         3.33050
       331.54182      -207.97674         3.33050         3.33050
       331.54182      -223.97495         3.06228         3.06228
       344.54530      -207.97674         3.33050         3.33050
       344.54530      -191.97853         3.69274         3.69274
       331.54182      -191.97853         3.69274         3.69274
       331.54182      -207.97674         3.33050         3.33050
       344.54530      -191.97853         3.69274         3.69274
       344.54530      -175.98032         4.12554         4.12554
       331.54182      -175.98032         4.12554         4.12554
       331.54182      -191.97853         3.69274         3.69274
       344.54530      -175.98032         4.12554         4.12554
       344.54530      -159.98210         3.92639         3.92639
       331.54182      -159.98210         3.92639         3.92639
       331.54182      -175.98032         4.12554         4.12554
       344.54530      -159.98210         3.92639         3.92639
       344.54530      -143.98389         2.64593         2.64593
       331.54182      -143.98389         2.64593         2.64593
       331.54182      -159.98210         3.92639         3.92639
       344.54530      -143.98389         2.64593         2.64593
       344.54530      -127.98568         1.82808         1.82808
       331.54182      -127.98568         1.82808         1.82808
       331.54182      -143.98389         2.64593         2.64593
       344.54530      -127.98568         1.82808         1.82808
       344.54530      -111.98747         2.40405         2.40405
       331.54182      -111.98747         2.40405         2.40405
       331.54182      -127.98568         1.82808         1.82808
       344.54530      -111.98747         2.40405         2.40405
       344.54530       -95.98926         2.92666         2.92666
       331.54182       -95.98926         2.92666         2.92666
       331.54182      -111.98747         2.40405         2.40405
       344.54530       -95.98926         2.92666         2.92666
       344.54530       -79.99105         2.43882         2.43882
       331.54182       -79.99105         2.43882         2.43882
       331.54182       -95.98926         2.92666         2.92666
       344.54530       -79.99105         2.43882         2.43882
       344.54530       -63.99284         2.15819         2.15819
       331.54182       -63.99284         2.15819         2.15819
       331.54182       -79.99105         2.43882         2.43882
       344.54530       -63.99284         2.15819         2.15819
       344.54530       -47.99463         2.76616         2.76616
       331.54182       -47.99463         2.76616         2.76616
       331.54182       -63.99284         2.15819         2.15819
       344.54530       -47.99463         2.76616         2.76616
       344.54530       -31.99642         3.59124         3.59124
       331.54182       -31.99642         3.59124         3.59124
       331.54182       -47.99463         2.76616         2.76616
       344.54530       -31.99642         3.59124         3.59124
       344.54530       -15.99821         4.54781         4.54781
       331.54182       -15.99821         4.54781         4.54781
       331.54182       -31.99642         3.59124         3.59124
       344.54530       -15.99821         4.54781         4.54781
       344.54530         0.00000         5.07439         5.07439
       331.54182         0.00000         5.07439         5.07439
       331.54182       -15.99821         4.54781         4.54781
       344.54530         0.00000         5.07439         5.07439
       344.54530        15.99821         4.60114         4.60114
       331.54182        15.99821         4.60114         4.60114
       331.54182         0.00000         5.07439         5.07439
       344.54530        15.99821         4.60114         4.60114
       344.54530        31.99642         4.46311         4.46311
       331.54182        31.99642         4.46311         4.46311
       331.54182        15.99821         4.60114         4.60114
       344.54530        31.99642         4.46311         4.46311
       344.54530        47.99463         4.84660         4.84660
       331.54182        47.99463         4.84660         4.84660
       331.54182        31.99642         4.46311         4.46311
       344.54530        47.99463         4.84660         4.84660
       344.54530        63.99284         4.77593         4.77593
       331.54182        63.99284         4.77593         4.77593
       331.54182        47.99463         4.84660         4.84660
       344.54530        63.99284         4.77593         4.77593
       344.54530        79.99105         5.08595         5.08595
       331.54182        79.99105         5.08595         5.08595
       331.54182        63.99284         4.77593         4.77593
       344.54530        79.99105         5.08595         5.08595
       344.54530        95.98926         5.77754         5.77754
       331.54182        95.98926         5.77754         5.77754
       331.54182        79.99105         5.08595         5.08595
       344.54530        95.98926         5.77754         5.77754
       344.54530       111.98747         5.55303         5.55303
       331.54182       111.98747         5.55303         5.55303
       331.54182        95.98926         5.77754         5.77754
       344.54530       111.98747         5.55303         5.55303
       344.54530       127.98568         4.57886         4.57886
       331.54182       127.98568         4.57886         4.57886
       331.54182       111.98747         5.55303         5.55303
       344.54530       127.98568         4.57886         4.57886
       344.54530       143.98389         3.39131         3.39131
       331.54182       143.98389         3.39131         3.39131
       331.54182       127.98568         4.57886         4.57886
       344.54530       143.98389         3.39131         3.39131
       344.54530       159.98210         2.32806         2.32806
       331.54182       159.98210         2.32806         2.32806
       331.54182       143.98389         3.39131         3.39131
       344.54530       159.98210         2.32806         2.32806
       344.54530       175.98032         1.84103         1.84103
       331.54182       175.98032         1.84103         1.84103
       331.54182       159.98210         2.32806         2.32806
       344.54530       175.98032         1.84103         1.84103
       344.54530       191.97853         1.62710         1.62710
       331.54182       191.97853         1.62710         1.62710
       331.54182       175.98032         1.84103         1.84103
       344.54530       191.97853         1.62710         1.62710
       344.54530       207.97674         1.26083         1.26083
       331.54182       207.97674         1.26083         1.26083
       331.54182       191.97853         1.62710         1.62710
       344.54530       207.97674         1.26083         1.26083
       344.54530       223.97495         0.86951         0.86951
       331.54182       223.97495         0.86951         0.86951
       331.54182       207.97674         1.26083         1.26083
       344.54530       223.97495         0.86951         0.86951
       344.54530       239.97316         0.83944         0.83944
       331.54182       239.97316         0.83944         0.83944
       331.54182       223.97495         0.86951         0.86951
       344.54530       239.97316         0.83944         0.83944
       344.54530       255.97137         0.97050         0.97050
       331.54182       255.97137         0.97050         0.97050
       331.54182       239.97316         0.83944         0.83944
       344.54530       255.97137         0.97050         0.97050
       344.54530       271.96958         0.58197         0.58197
       331.54182       271.96958         0.58197         0.58197
       331.54182       255.97137         0.97050         0.97050
       344.54530       271.96958         0.58197         0.58197
       344.54530       287.96779         0.24779         0.24779
       331.54182       287.96779         0.24779         0.24779
       331.54182       271.96958         0.58197         0.58197
       344.54530       287.96779         0.24779         0.24779
       344.54530       303.96600         0.24779         0.24779
       331.54182       303.96600         0.24779         0.24779
       331.54182       287.96779         0.24779         0.24779
       331.54182      -303.96600         1.23208         1.23208
       331.54182      -287.96779         1.23208         1.23208
       318.53833      -287.96779         1.42140         1.42140
       318.53833      -303.96600         1.42140         1.42140
       331.54182      -287.96779         1.23208         1.23208
       331.54182      -271.96958         1.60687         1.60687
       318.53833      -271.96958         1.40167         1.40167
       318.53833      -287.96779         1.42140         1.42140
       331.54182      -271.96958         1.60687         1.60687
       331.54182      -255.97137         2.72374         2.72374
       318.53833      -255.97137         2.40795         2.40795
       318.53833      -271.96958         1.40167         1.40167
       331.54182      -255.97137         2.72374         2.72374
       331.54182      -239.97316         3.10992         3.10992
       318.53833      -239.97316         3.33758         3.33758
       318.53833      -255.97137         2.40795         2.40795
       331.54182      -239.97316         3.10992         3.10992
       331.54182      -223.97495         3.06228         3.06228
       318.53833      -223.97495         3.43445         3.43445
       318.53833      -239.97316         3.33758         3.33758
       331.54182      -223.97495         3.06228         3.06228
       331.54182      -207.97674         3.33050         3.33050
       318.53833      -207.97674         3.64485         3.64485
       318.53833      -223.97495         3.43445         3.43445
       331.54182      -207.97674         3.33050         3.33050
       331.54182      -191.97853         3.69274         3.69274
       318.53833      -191.97853         4.07762         4.07762
       318.53833      -207.97674         3.64485         3.64485
       331.54182      -191.97853         3.69274         3.69274
       331.54182      -175.98032         4.12554         4.12554
       318.53833      -175.98032         4.54917         4.54917
       318.53833      -191.97853         4.07762         4.07762
       331.54182      -175.98032         4.12554         4.12554
       331.54182      -159.98210         3.92639         3.92639
       318.53833      -159.98210         4.75574         4.75574
       318.53833      -175.98032         4.54917         4.54917
       331.54182      -159.98210         3.92639         3.92639
       331.54182      -143.98389         2.64593         2.64593
       318.53833      -143.98389         3.76482         3.76482
       318.53833      -159.98210         4.75574         4.75574
       331.54182      -143.98389         2.64593         2.64593
       331.54182      -127.98568         1.82808         1.82808
       318.53833      -127.98568         2.25292         2.25292
       318.53833      -143.98389         3.76482         3.76482
       331.54182      -127.98568         1.82808         1.82808
       331.54182      -111.98747         2.40405         2.40405
       318.53833      -111.98747         1.89370         1.89370
       318.53833      -127.98568         2.25292         2.25292
       331.54182      -111.98747         2.40405         2.40405
       331.54182       -95.98926         2.92666         2.92666
       318.53833       -95.98926         2.18009         2.18009
       318.53833      -111.98747         1.89370         1.89370
       331.54182       -95.98926         2.92666         2.92666
       331.54182       -79.99105         2.43882         2.43882
       318.53833       -79.99105         1.49598         1.49598
       318.53833       -95.98926         2.18009         2.18009
       331.54182       -79.99105         2.43882         2.43882
       331.54182       -63.99284         2.15819         2.15819
       318.53833       -63.99284         0.38912         0.38912
       318.53833       -79.99105         1.49598         1.49598
       331.54182       -63.99284         2.15819         2.15819
       331.54182       -47.99463         2.76616         2.76616
       318.53833       -47.99463         0.47719         0.47719
       318.53833       -63.99284         0.38912         0.38912
       331.54182       -47.99463         2.76616         2.76616
       331.54182       -31.99642         3.59124         3.59124
       318.53833       -31.99642         1.61422         1.61422
       318.53833       -47.99463         0.47719         0.47719
       331.54182       -31.99642         3.59124         3.59124
       331.54182       -15.99821         4.54781         4.54781
       318.53833       -15.99821         3.20100         3.20100
       318.53833       -31.99642         1.61422         1.61422
       331.54182       -15.99821         4.54781         4.54781
       331.54182         0.00000         5.07439         5.07439
       318.53833         0.00000         4.83012         4.83012
       318.53833       -15.99821         3.20100         3.20100
       331.54182         0.00000         5.07439         5.07439
       331.54182        15.99821         4.60114         4.60114
       318.53833        15.99821         5.30100         5.30100
       318.53833         0.00000         4.83012         4.83012
       331.54182        15.99821         4.60114         4.60114
       331.54182        31.99642         4.46311         4.46311
       318.53833        31.99642         5.00582         5.00582
       318.53833        15.99821         5.30100         5.30100
       331.54182        31.99642         4.46311         4.46311
       331.54182        47.99463         4.84660         4.84660
       318.53833        47.99463         5.12898         5.12898
       318.53833        31.99642         5.00582         5.00582
       331.54182        47.99463         4.84660         4.84660
       331.54182        63.99284         4.77593         4.77593
       318.53833        63.99284         4.89879         4.89879
       318.53833        47.99463         5.12898         5.12898
       331.54182        63.99284         4.77593         4.77593
       331.54182        79.99105         5.08595         5.08595
       318.53833        79.99105         4.53653         4.53653
       318.53833        63.99284         4.89879         4.89879
       331.54182        79.99105         5.08595         5.08595
       331.54182        95.98926         5.77754         5.77754
       318.53833        95.98926         5.16154         5.16154
       318.53833        79.99105         4.53653         4.53653
       331.54182        95.98926         5.77754         5.77754
       331.54182       111.98747         5.55303         5.55303
       318.53833       111.98747         5.75699         5.75699
       318.53833        95.98926         5.16154         5.16154
       331.54182       111.98747         5.55303         5.55303
       331.54182       127.98568         4.57886         4.57886
       318.53833       127.98568         5.46382         5.46382
       318.53833       111.98747         5.75699         5.75699
       331.54182       127.98568         4.57886         4.57886
       331.54182       143.98389         3.39131         3.39131
       318.53833       143.98389         4.60072         4.60072
       318.53833       127.98568         5.46382         5.46382
       331.54182       143.98389         3.39131         3.39131
       331.54182       159.98210         2.32806         2.32806
       318.53833       159.98210         3.39699         3.39699
       318.53833       143.98389         4.60072         4.60072
       331.54182       159.98210         2.32806         2.32806
       331.54182       175.98032         1.84103         1.84103
       318.53833       175.98032         2.52523         2.52523
       318.53833       159.98210         3.39699         3.39699
       331.54182       175.98032         1.84103         1.84103
       331.54182       191.97853         1.62710         1.62710
       318.53833       191.97853         2.32107         2.32107
       318.53833       175.98032         2.52523         2.52523
       331.54182       191.97853         1.62710         1.62710
       331.54182       207.97674         1.26083         1.26083
       318.53833       207.97674         2.26438         2.26438
       318.53833       191.97853         2.32107         2.32107
       331.54182       207.97674         1.26083         1.26083
       331.54182       223.97495         0.86951         0.86951
       318.53833       223.97495         1.94341         1.94341
       318.53833       207.97674         2.26438         2.26438
       331.54182       223.97495         0.86951         0.86951
       331.54182       239.97316         0.83944         0.83944
       318.53833       239.97316         1.40779         1.40779
       318.53833       223.97495         1.94341         1.94341
       331.54182       239.97316         0.83944         0.83944
       331.54182       255.97137         0.97050         0.97050
       318.53833       255.97137         0.87434         0.87434
       318.53833       239.97316         1.40779         1.40779
       331.54182       255.97137         0.97050         0.97050
       331.54182       271.96958         0.58197         0.58197
       318.53833       271.96958         0.05462         0.05462
       318.53833       255.97137         0.87434         0.87434
       331.54182       271.96958         0.58197         0.58197
       331.54182       287.96779         0.24779         0.24779
       318.53833       287.96779        -0.80688        -0.80688
       318.53833       271.96958         0.05462         0.05462
       331.54182       287.96779         0.24779         0.24779
       331.54182       303.96600         0.24779         0.24779
       318.53833       303.96600        -0.80688        -0.80688
       318.53833       287.96779        -0.80688        -0.80688
       318.53833      -303.96600         1.42140         1.42140
       318.53833      -287.96779         1.42140         1.42140
       305.53485      -287.96779         1.39002         1.39002
       305.53485      -303.96600         1.39002         1.39002
       318.53833      -287.96779         1.42140         1.42140
       318.53833      -271.96958         1.40167         1.40167
       305.53485      -271.96958         1.10049         1.10049
       305.53485      -287.96779         1.39002         1.39002
       318.53833      -271.96958         1.40167         1.40167
       318.53833      -255.97137         2.40795         2.40795
       305.53485      -255.97137         1.62346         1.62346
       305.53485      -271.96958         1.10049         1.10049
       318.53833      -255.97137         2.40795         2.40795
       318.53833      -239.97316         3.33758         3.33758
       305.53485      -239.97316         2.91330         2.91330
       305.53485      -255.97137         1.62346         1.62346
       318.53833      -239.97316         3.33758         3.33758
       318.53833      -223.97495         3.43445         3.43445
       305.53485      -223.97495         3.43783         3.43783
       305.53485      -239.97316         2.91330         2.91330
       318.53833      -223.97495         3.43445         3.43445
       318.53833      -207.97674         3.64485         3.64485
       305.53485      -207.97674         3.55589         3.55589
       305.53485      -223.97495         3.43783         3.43783
       318.53833      -207.97674         3.64485         3.64485
       318.53833      -191.97853         4.07762         4.07762
       305.53485      -191.97853         3.92958         3.92958
       305.53485      -207.97674         3.55589         3.55589
       318.53833      -191.97853         4.07762         4.07762
       318.53833      -175.98032         4.54917         4.54917
       305.53485      -175.98032         4.32182         4.32182
       305.53485      -191.97853         3.92958         3.92958
       318.53833      -175.98032         4.54917         4.54917
       318.53833      -159.98210         4.75574         4.75574
       305.53485      -159.98210         4.70199         4.70199
       305.53485      -175.98032         4.32182         4.32182
       318.53833      -159.98210         4.75574         4.75574
       318.53833      -143.98389         3.76482         3.76482
       305.53485      -143.98389         4.28223         4.28223
       305.53485      -159.98210         4.70199         4.70199
       318.53833      -143.98389         3.76482         3.76482
       318.53833      -127.98568         2.25292         2.25292
       305.53485      -127.98568         2.64072         2.64072
       305.53485      -143.98389         4.28223         4.28223
       318.53833      -127.98568         2.25292         2.25292
       318.53833      -111.98747         1.89370         1.89370
       305.53485      -111.98747         1.30652         1.30652
       305.53485      -127.98568         2.64072         2.64072
       318.53833      -111.98747         1.89370         1.89370
       318.53833       -95.98926         2.18009         2.18009
       305.53485       -95.98926         1.08655         1.08655
       305.53485      -111.98747         1.30652         1.30652
       318.53833       -95.98926         2.18009         2.18009
       318.53833       -79.99105         1.49598         1.49598
       305.53485       -79.99105         0.68457         0.68457
       305.53485       -95.98926         1.08655         1.08655
       318.53833       -79.99105         1.49598         1.49598
       318.53833       -63.99284         0.38912         0.38912
       305.53485       -63.99284        -0.34426        -0.34426
       305.53485       -79.99105         0.68457         0.68457
       318.53833       -63.99284         0.38912         0.38912
       318.53833       -47.99463         0.47719         0.47719
       305.53485       -47.99463        -0.43257        -0.43257
       305.53485       -63.99284        -0.34426        -0.34426
       318.53833       -47.99463         0.47719         0.47719
       318.53833       -31.99642         1.61422         1.61422
       305.53485       -31.99642         0.95977         0.95977
       305.53485       -47.99463        -0.43257        -0.43257
       318.53833       -31.99642         1.61422         1.61422
       318.53833       -15.99821         3.20100         3.20100
       305.53485       -15.99821         2.81640         2.81640
       305.53485       -31.99642         0.95977         0.95977
       318.53833       -15.99821         3.20100         3.20100
       318.53833         0.00000         4.83012         4.83012
       305.53485         0.00000         4.63268         4.63268
       305.53485       -15.99821         2.81640         2.81640
       318.53833         0.00000         4.83012         4.83012
       318.53833        15.99821         5.30100         5.30100
       305.53485        15.99821         5.45553         5.45553
       305.53485         0.00000         4.63268         4.63268
       318.53833        15.99821         5.30100         5.30100
       318.53833        31.99642         5.00582         5.00582
       305.53485        31.99642         4.74060         4.74060
       305.53485        15.99821         5.45553         5.45553
       318.53833        31.99642         5.00582         5.00582
       318.53833        47.99463         5.12898         5.12898
       305.53485        47.99463         4.05283         4.05283
       305.53485        31.99642         4.74060         4.74060
       318.53833        47.99463         5.12898         5.12898
       318.53833        63.99284         4.89879         4.89879
       305.53485        63.99284         3.78653         3.78653
       305.53485        47.99463         4.05283         4.05283
       318.53833        63.99284         4.89879         4.89879
       318.53833        79.99105         4.53653         4.53653
       305.53485        79.99105         3.40821         3.40821
       305.53485        63.99284         3.78653         3.78653
       318.53833        79.99105         4.53653         4.53653
       318.53833        95.98926         5.16154         5.16154
       305.53485        95.98926         3.99823         3.99823
       305.53485        79.99105         3.40821         3.40821
       318.53833        95.98926         5.16154         5.16154
       318.53833       111.98747         5.75699         5.75699
       305.53485       111.98747         5.28134         5.28134
       305.53485        95.98926         3.99823         3.99823
       318.53833       111.98747         5.75699         5.75699
       318.53833       127.98568         5.46382         5.46382
       305.53485       127.98568         5.66566         5.66566
       305.53485       111.98747         5.28134         5.28134
       318.53833       127.98568         5.46382         5.46382
       318.53833       143.98389         4.60072         4.60072
       305.53485       143.98389         5.16151         5.16151
       305.53485       127.98568         5.66566         5.66566
       318.53833       143.98389         4.60072         4.60072
       318.53833       159.98210         3.39699         3.39699
       305.53485       159.98210         4.30559         4.30559
       305.53485       143.98389         5.16151         5.16151
       318.53833       159.98210         3.39699         3.39699
       318.53833       175.98032         2.52523         2.52523
       305.53485       175.98032         3.64281         3.64281
       305.53485       159.98210         4.30559         4.30559
       318.53833       175.98032         2.52523         2.52523
       318.53833       191.97853         2.32107         2.32107
       305.53485       191.97853         3.65323         3.65323
       305.53485       175.98032         3.64281         3.64281
       318.53833       191.97853         2.32107         2.32107
       318.53833       207.97674         2.26438         2.26438
       305.53485       207.97674         3.74237         3.74237
       305.53485       191.97853         3.65323         3.65323
       318.53833       207.97674         2.26438         2.26438
       318.53833       223.97495         1.94341         1.94341
       305.53485       223.97495         3.14123         3.14123
       305.53485       207.97674         3.74237         3.74237
       318.53833       223.97495         1.94341         1.94341
       318.53833       239.97316         1.40779         1.40779
       305.53485       239.97316         1.88486         1.88486
       305.53485       223.97495         3.14123         3.14123
       318.53833       239.97316         1.40779         1.40779
       318.53833       255.97137         0.87434         0.87434
       305.53485       255.97137         0.66365         0.66365
       305.53485       239.97316         1.88486         1.88486
       318.53833       255.97137         0.87434         0.87434