# vtk DataFile Version 4.2
vtk output
ASCII
DATASET UNSTRUCTURED_GRID
POINTS 8741 float
-50.2959 -42.4847 31.8081 -50.296 -30.4847 31.8041 -50.2965 30.5153 31.7834 
-50.2966 42.5153 31.7793 -46.2977 46.5153 31.6846 -34.301 46.5153 31.4045 
26.6824 46.5153 29.9808 38.6791 46.5153 29.7007 42.6781 42.5153 29.6087 
42.6782 30.5153 29.6127 42.6786 -30.4847 29.6334 42.6787 -42.4847 29.6375 
38.6799 -46.4847 29.7322 26.6831 -46.4847 30.0123 -46.297 -46.4847 31.7161 
-34.3003 -46.4847 31.436 26.4606 46.5121 20.4834 25.9705 46.505 -0.51091 
37.9672 46.505 -0.79099 38.4574 46.5121 20.2033 -34.5227 46.5121 21.9071 
-46.5195 46.5121 22.1872 -47.0096 46.505 1.19293 -35.0129 46.505 0.91285 
42.4563 42.5121 20.1113 -50.5183 42.5121 22.2819 41.9662 42.505 -0.883 
41.9663 30.505 -0.87893 42.4564 30.5121 20.1153 -50.5182 30.5121 22.286 
-51.0084 30.505 1.29171 -51.0085 42.505 1.28765 42.4569 -30.4879 20.136 
-50.5178 -30.4879 22.3066 41.9668 -30.495 -0.85828 41.9669 -42.495 -0.85422 
42.457 -42.4879 20.1401 -50.5177 -42.4879 22.3107 -51.0078 -42.495 1.31643 
-51.0079 -30.495 1.31237 38.4581 -46.4879 20.2348 -46.5187 -46.4879 22.2187 
37.968 -46.495 -0.7595 25.9712 -46.495 -0.47942 26.4614 -46.4879 20.5149 
-34.522 -46.4879 21.9386 -35.0121 -46.495 0.94434 -47.0089 -46.495 1.22442 
-34.5221 -26.4879 21.9319 -30.5232 -30.4879 21.8398 -30.5231 -42.4879 21.8439 
22.4624 -42.4879 20.6069 22.4624 -30.4879 20.6028 26.4612 -26.4879 20.5081 
38.458 -26.4879 20.228 38.4575 26.5121 20.2101 26.4608 26.5121 20.4901 
22.4619 30.5121 20.5821 22.4618 42.5121 20.5781 -30.5238 42.5121 21.8151 
-30.5237 30.5121 21.8192 -34.5226 26.5121 21.9139 -46.5193 26.5121 22.194 
-46.5189 -26.4879 22.2119 50.0069 30.4911 -42.0778 50.0067 46.4911 -42.0832 
41.0091 55.4911 -41.8762 25.0135 55.4911 -41.5028 25.0135 46.4911 -41.4997 
21.0147 42.4911 -41.405 21.0147 41.6911 -41.4047 -5.4781 41.6911 -40.7862 
-5.47802 31.2911 -40.7827 21.0148 31.2911 -41.4012 21.0148 30.4911 -41.401 
25.0137 26.4911 -41.493 25.8135 26.4911 -41.5116 25.8137 -0.0089 -41.5027 
36.2109 -0.0089 -41.7454 36.2107 26.4911 -41.7544 41.0093 30.4911 -41.8677 
37.0104 26.4911 -41.773 37.4304 46.4972 -23.7847 25.4337 46.4972 -23.5046 
25.4336 55.4972 -23.5077 41.4292 55.4972 -23.8811 50.4269 46.4972 -24.0881 
50.427 30.4972 -24.0827 41.4294 42.4972 -23.8767 41.4294 30.4972 -23.8727 
25.9705 46.505 -0.51091 21.9716 42.505 -0.41619 21.9717 30.505 -0.41213 
25.9707 26.505 -0.50414 37.9674 26.505 -0.78422 41.9663 30.505 -0.87893 
37.9672 46.505 -0.79099 41.9662 42.505 -0.883 21.2948 31.2952 -29.4045 
21.2948 41.6952 -29.408 -5.19793 31.2952 -28.786 -5.19802 41.6952 -28.7895 
36.4907 26.4952 -29.7576 26.0936 26.4952 -29.5149 36.491 -0.00483 -29.7487 
26.0938 -0.00483 -29.5059 21.9716 42.505 -0.41619 21.9717 30.505 -0.41213 
25.9707 26.505 -0.50414 37.9674 26.505 -0.78422 -47.1666 26.4911 -39.8078 
-47.1664 -0.0089 -39.7988 -36.7692 -0.0089 -40.0415 -36.7695 26.4911 -40.0505 
-35.9697 26.4911 -40.0692 -31.9708 30.4911 -40.1639 -31.9708 31.2911 -40.1642 
-5.47802 31.2911 -40.7827 -5.4781 41.6911 -40.7862 -31.9709 41.6911 -40.1677 
-31.9709 42.4911 -40.168 -35.9698 46.4911 -40.076 -35.9699 55.4911 -40.079 
-51.9655 55.4911 -39.7056 -60.963 46.4911 -39.4925 -60.9629 30.4911 -39.487 
-51.9653 30.4911 -39.6971 -47.9664 26.4911 -39.7891 -60.5428 30.4972 -21.4919 
-60.5429 46.4972 -21.4974 -51.5454 55.4972 -21.7105 -35.5498 55.4972 -22.0839 
-35.5497 46.4972 -22.0809 -47.5464 46.4972 -21.8008 -51.5453 42.4972 -21.7061 
-51.5452 30.4972 -21.702 -35.0129 46.505 0.91285 -31.0139 42.505 0.82084 
-31.0138 30.505 0.82491 -35.0127 26.505 0.91962 -47.0094 26.505 1.19971 
-51.0084 30.505 1.29171 -47.0096 46.505 1.19293 -51.0085 42.505 1.28765 
-31.6907 31.2952 -28.1674 -31.6908 41.6952 -28.171 -5.19802 41.6952 -28.7895 
-5.19793 31.2952 -28.786 -46.8865 26.4952 -27.8111 -36.4894 26.4952 -28.0538 
-36.4892 -0.00483 -28.0448 -46.8863 -0.00483 -27.8021 -31.0139 42.505 0.82084 
-31.0138 30.505 0.82491 -35.0127 26.505 0.91962 -47.0094 26.505 1.19971 
36.2111 -26.5089 -41.7364 36.2109 -0.0089 -41.7454 25.8137 -0.0089 -41.5027 
25.8139 -26.5089 -41.4937 25.0141 -26.5089 -41.475 21.0152 -30.5089 -41.3803 
21.0152 -31.3089 -41.38 -5.47752 -31.3089 -40.7615 -5.47744 -41.7089 -40.758 
21.0153 -41.7089 -41.3765 21.0153 -42.5089 -41.3762 25.0143 -46.5089 -41.4682 
25.0144 -55.5089 -41.4652 41.01 -55.5089 -41.8386 50.0075 -46.5089 -42.0517 
50.0074 -30.5089 -42.0572 41.0098 -30.5089 -41.8471 37.0109 -26.5089 -41.7551 
50.4275 -30.5028 -24.0621 50.4276 -46.5028 -24.0567 41.4301 -55.5028 -23.8435 
25.4345 -55.5028 -23.4701 25.4344 -46.5028 -23.4731 37.4311 -46.5028 -23.7532 
41.43 -42.5028 -23.8479 41.4299 -30.5028 -23.852 25.9712 -46.495 -0.47942 
21.9723 -42.495 -0.38741 21.9722 -30.495 -0.39147 25.9711 -26.495 -0.48619 
37.9678 -26.495 -0.76627 41.9668 -30.495 -0.85828 37.968 -46.495 -0.7595 
41.9669 -42.495 -0.85422 21.2953 -31.3048 -29.3833 21.2954 -41.7048 -29.3798 
-5.19736 -41.7048 -28.7612 -5.19744 -31.3048 -28.7648 36.4912 -26.5048 -29.7397 
26.094 -26.5048 -29.497 26.0938 -0.00483 -29.5059 36.491 -0.00483 -29.7487 
21.9723 -42.495 -0.38741 21.9722 -30.495 -0.39147 25.9711 -26.495 -0.48619 
37.9678 -26.495 -0.76627 -47.009 -26.495 1.21765 -35.0123 -26.495 0.93757 
-31.0133 -30.495 0.84556 -31.0133 -42.495 0.84962 -35.9692 -26.5089 -40.0513 
-47.966 -26.5089 -39.7712 -47.1662 -26.5089 -39.7898 -46.8861 -26.5048 -27.7931 
-36.4889 -26.5048 -28.0359 -36.769 -26.5089 -40.0326 -31.9702 -42.5089 -40.1392 
-31.9703 -30.5089 -40.1433 -31.9703 -31.3089 -40.143 -31.6902 -31.3048 -28.1463 
-31.6901 -41.7048 -28.1427 -31.9702 -41.7089 -40.1395 -51.5446 -42.5028 -21.6773 
-51.5447 -30.5028 -21.6814 -47.5457 -46.5028 -21.7693 -35.549 -46.5028 -22.0494 
-46.8863 -0.00483 -27.8021 -36.4892 -0.00483 -28.0448 -36.7692 -0.0089 -40.0415 
-47.1664 -0.0089 -39.7988 -5.19744 -31.3048 -28.7648 -5.19736 -41.7048 -28.7612 
-5.47752 -31.3089 -40.7615 -5.47744 -41.7089 -40.758 -35.5489 -55.5028 -22.0463 
-51.5445 -55.5028 -21.6729 -60.5421 -46.5028 -21.4659 -60.5423 -30.5028 -21.4713 
-60.9624 -30.5089 -39.4664 -51.9649 -30.5089 -39.6764 -60.9623 -46.5089 -39.461 
-35.9691 -46.5089 -40.0445 -35.969 -55.5089 -40.0414 -51.9647 -55.5089 -39.668 
-47.8273 -46.1802 31.7517 -49.1247 -45.3131 31.7817 -49.9915 -44.0154 31.8015 
-50.296 -39.4847 31.8071 -50.296 -36.4847 31.8061 -50.296 -33.4847 31.8051 
-50.2961 -27.4347 31.803 -50.2961 -24.3847 31.802 -50.2961 -21.3347 31.801 
-50.2961 -18.2847 31.7999 -50.2961 -15.2347 31.7989 -50.2962 -12.1847 31.7979 
-50.2962 -9.13468 31.7968 -50.2962 -6.08468 31.7958 -50.2962 -3.03468 31.7948 
-50.2963 0.01532 31.7937 -50.2963 3.06532 31.7927 -50.2963 6.11532 31.7917 
-50.2963 9.16532 31.7906 -50.2964 12.2153 31.7896 -50.2964 15.2653 31.7886 
-50.2964 18.3153 31.7875 -50.2964 21.3653 31.7865 -50.2965 24.4153 31.7855 
-50.2965 27.4653 31.7844 -50.2965 33.5153 31.7824 -50.2966 36.5153 31.7814 
-50.2966 39.5153 31.7803 -49.9922 44.046 31.7717 -49.1254 45.3437 31.751 
-47.828 46.2108 31.7204 -43.2985 46.5153 31.6146 -40.2994 46.5153 31.5446 
-37.3002 46.5153 31.4746 -31.2518 46.5153 31.3333 -28.2027 46.5153 31.2622 
-25.1535 46.5153 31.191 -22.1043 46.5153 31.1198 -19.0551 46.5153 31.0486 
-16.006 46.5153 30.9774 -12.9568 46.5153 30.9062 -9.90764 46.5153 30.835 
-6.85847 46.5153 30.7638 -3.80931 46.5153 30.6927 -0.76014 46.5153 30.6215 
2.28903 46.5153 30.5503 5.3382 46.5153 30.4791 8.38737 46.5153 30.4079 
11.4365 46.5153 30.3367 14.4857 46.5153 30.2655 17.5349 46.5153 30.1943 
20.584 46.5153 30.1232 23.6332 46.5153 30.052 29.6816 46.5153 29.9108 
32.6808 46.5153 29.8407 35.6799 46.5153 29.7707 40.2094 46.2108 29.6651 
41.5068 45.3437 29.6351 42.3736 44.046 29.6153 42.6781 39.5153 29.6097 
42.6781 36.5153 29.6107 42.6781 33.5153 29.6117 42.6782 27.4653 29.6138 
42.6782 24.4153 29.6148 42.6782 21.3653 29.6159 42.6782 18.3153 29.6169 
42.6783 15.2653 29.6179 42.6783 12.2153 29.6189 42.6783 9.16532 29.62 
42.6783 6.11532 29.621 42.6784 3.06532 29.622 42.6784 0.01532 29.6231 
42.6784 -3.03468 29.6241 42.6784 -6.08468 29.6252 42.6785 -9.13468 29.6262 
42.6785 -12.1847 29.6272 42.6785 -15.2347 29.6283 42.6785 -18.2847 29.6293 
42.6786 -21.3347 29.6303 42.6786 -24.3847 29.6313 42.6786 -27.4347 29.6324 
42.6786 -33.4847 29.6344 42.6787 -36.4847 29.6354 42.6787 -39.4847 29.6365 
42.3743 -44.0154 29.6451 41.5075 -45.3131 29.6658 40.2101 -46.1802 29.6964 
35.6807 -46.4847 29.8022 32.6815 -46.4847 29.8722 29.6823 -46.4847 29.9422 
23.6339 -46.4847 30.0835 20.5848 -46.4847 30.1546 17.5356 -46.4847 30.2258 
14.4864 -46.4847 30.297 11.4373 -46.4847 30.3682 8.3881 -46.4847 30.4394 
5.33893 -46.4847 30.5106 2.28977 -46.4847 30.5818 -0.7594 -46.4847 30.653 
-3.80857 -46.4847 30.7241 -6.85774 -46.4847 30.7953 -9.90691 -46.4847 30.8665 
-12.9561 -46.4847 30.9377 -16.0052 -46.4847 31.0089 -19.0544 -46.4847 31.0801 
-22.1036 -46.4847 31.1513 -25.1528 -46.4847 31.2225 -28.2019 -46.4847 31.2936 
-31.2511 -46.4847 31.3648 -37.2994 -46.4847 31.5061 -40.2986 -46.4847 31.5761 
-43.2978 -46.4847 31.6461 26.5346 46.5132 23.6492 26.6085 46.5142 26.815 
26.0405 46.506 2.48827 26.1105 46.507 5.48746 26.1806 46.508 8.48664 
26.2506 46.509 11.4858 26.3206 46.5101 14.485 26.3906 46.5111 17.4842 
28.9697 46.505 -0.58093 31.9689 46.505 -0.65095 34.968 46.505 -0.72097 
38.0373 46.506 2.20819 38.1073 46.507 5.20737 38.1773 46.508 8.20656 
38.2473 46.509 11.2057 38.3173 46.5101 14.2049 38.3874 46.5111 17.2041 
38.5313 46.5132 23.3691 38.6052 46.5142 26.5349 -34.4488 46.5132 25.0729 
-34.3749 46.5142 28.2387 23.4115 46.5121 20.5546 20.3623 46.5121 20.6257 
17.3131 46.5121 20.6969 14.264 46.5121 20.7681 11.2148 46.5121 20.8393 
8.16563 46.5121 20.9105 5.11647 46.5121 20.9817 2.0673 46.5121 21.0529 
-0.98187 46.5121 21.1241 -4.03104 46.5121 21.1952 -7.08021 46.5121 21.2664 
-10.1294 46.5121 21.3376 -13.1785 46.5121 21.4088 -16.2277 46.5121 21.48 
-19.2769 46.5121 21.5512 -22.326 46.5121 21.6224 -25.3752 46.5121 21.6936 
[...]
CELL_DATA 12638
SCALARS cell_scalars float
LOOKUP_TABLE default
-8274.9 -7628 -8331.4 -8461.1 -7489.4 -8024.9 -7912.7 -7853.7 -8334.4 
-8059.9 -8596 -8299.4 -8815.7 -8518.1 -8966.5 -8644.7 -9139.9 -8845 
-9275.7 -8947.3 -9332.3 -9056.2 -9332.3 -8905.2 -9130 -8661.8 -8957.3 
-8428.6 -8751.4 -8201.4 -8520.6 -7955.3 -8386.6 -7758.7 -8128.6 -7575.3 
-8136.7 -7358.3 -7845.4 -7452.4 -8001.7 -7784.8 -8279.5 -8094.8 -8597.3 
-8381.9 -8821.6 -8569 -8969.4 -8693.4 -9079.8 -8822.5 -9197.7 -9022.8 
-9308.9 -8954.2 -9191 -8730.2 -8984.8 -8483.5 -8818.9 -8336.5 -8703.2 
-8285.7 -8878.2 -8897.1 -8438.4 -8928.2 -9082.8 -8344.3 -8943.7 -8230.1 
-8895 -8120.4 -8786.6 -8116.6 -8806.1 -8111.3 -8843.3 -8144.2 -8784.9 
-8064.6 -8771.1 -8096.8 -8761.1 -8069.2 -8718.5 -8051.5 -8749 -8082.5 
-8771.9 -8050.4 -8727 -8077.3 -8746.7 -8072.2 -8712.3 -8068.9 -8721.8 
-8059 -8736.9 -8064 -8775.6 -8041.3 -8734.6 -8068.4 -8743.3 -8067.4 
-8715.2 -8067 -8716.7 -8067.3 -8750.8 -8068.1 -8778.2 -8089.6 -8776.7 
-8051.6 -8738.1 -8026.7 -8720 -8052.5 -8723.9 -8052.3 -8811.3 -8218.8 
-9009.1 -8725.2 -8225.4 -8734.6 -8777 -8201.9 -8638.6 -8230.7 -8760.8 
-8472.1 -8915.9 -8645.5 -9085.9 -8861.8 -9221.1 -9002.2 -9276 -8842.9 
-9140.2 -8754.1 -9046 -8609 -8917.2 -8456.6 -8696.4 -8197.8 -8378.8 
-7913.1 -8114.8 -7619.7 -7822.9 -7243.3 -8016.2 -7545 -8303 -7677.8 
-8315.3 -7867.4 -8399.7 -8094.5 -8646.7 -8332.7 -8880.7 -8574.3 -9071.5 
-8793.9 -9232 -8987.8 -9329.4 -8977.7 -9260.5 -8875.1 -9204.7 -8720.1 
-9045.8 -8582.4 -8925 -8351.3 -8663.9 -8166 -8521 -7991 -8450.4 
-8358.2 -7720.6 -8320.6 -8137.5 -7637.5 -7971.6 -7524.8 -7858.6 -7539.4 
-7758 -7547 -7885 -7630.9 -7804.1 -7542.8 -7774.2 -7561.8 -7830.2 
-7565.6 -7760.4 -7475 -7749.5 -7510.1 -7854.9 -7478.8 -7740.5 -7536.8 
-7733.6 -7530.5 -7762.5 -7485.5 -7718.9 -7487.2 -7815.5 -7435.2 -7749.1 
-7493 -7770.4 -7480.9 -7709 -7529.9 -7787.5 -7491.6 -7692.6 -7480.2 
-7756.7 -7532 -7755.8 -7402.7 -7674.5 -7416.5 -7711 -7437.6 -7792.2 
-7449.7 -7759.5 -7422.3 -7862.2 -7402.1 -7403 -7502.8 -7434.3 -7658.6 
-7539.2 -7546.2 -7766.5 -7882.9 -7872.6 -7726 -7696.1 -7814 -7756.3 
-7700.5 -7907.3 -7759.3 -7963.1 -7807.2 -8067.6 -7929.1 -8247.7 -8141.3 
-8438.2 -8355.7 -8568.6 -8484.3 -8710.9 -8625.1 -8711 -8704 -8543.5 
-8641.2 -8321.5 -8422.9 -8068.7 -8169.9 -7853 -7947.9 -7639 -7708.6 
-7449.2 -7574.4 -7270.7 -7385 -7208.5 -7288.7 -7298.5 -7076.2 -7674.6 
-7430.7 -7877.5 -7725.4 -8146.5 -8015.3 -8318.4 -8222.1 -8471.3 -8376.9 
-8593.7 -8493 -8752 -8716.6 -8602.7 -8635.9 -8362.7 -8437.8 -8109.1 
-8192.3 -7353.7 -7577.1 -7253.5 -7623.7 -7544.9 -7584.5 -7599.6 -7520 
-7590.5 -7483.3 -7685.2 -7525.9 -7588.6 -7585.1 -7743.9 -7577.2 -7743.4 
-7555 -7761.5 -7578.6 -7668.8 -7585.9 -7672.3 -7612.4 -7668 -7562.5 
-7636.6 -7581.8 -7661.9 -7493.9 -7674 -7534.2 -7700.6 -7467.5 -7624.4 
-7519.7 -7626.6 -7527.9 -7599.8 -7470.8 -7593.4 -7503.6 -7656.1 -7424.3 
-7566.3 -7495.2 -7530.8 -7298.6 -7510.8 -7325.6 -7484.9 -7304.9 -7515.5 
-7682.2 -7675.8 -7716.7 -7688.2 -7665.2 -7713 -7704.5 -7691.4 -7706.1 
-7722.9 -7764.5 -7713.9 -7749.3 -7761.2 -7740.6 -7749.3 -7756.1 -7758.6 
-7738.8 -7762.6 -7729.8 -7754.1 -7744.5 -7749.9 -7722.1 -7759.9 -7705.5 
-7729.3 -7721.8 -7739.5 -7726.4 -7722.6 -7719.3 -7728.5 -7719.9 -7702.1 
-7703.6 -7701.2 -7680.7 -7689.8 -7669.8 -7661.2 -7616.3 -7660.7 -7597.2 
-7589.5 -7608.5 -7597.5 -7634.7 -7620.6 -7655.5 -7619.2 -7974.4 -7859.8 
-8206.7 -8054.7 -8484.2 -8320.2 -8644.5 -8535.9 -8734.6 -8658.2 -8522.5 
-8560.2 -8421.5 -8420.7 -8276.1 -8308.4 -8064.9 -8131.3 -7804.2 -7870.5 
-7539.8 -7642.6 -7167.8 -7296.7 -7208.7 -7178.7 -7369.5 -7267.1 -7510.4 
-7396.9 -7712.3 -7591.9 -7936.4 -7780.3 -8166.2 -8031.4 -8414.8 -8277.5 
-8673.5 -8527.1 -8776.9 -8710.1 -8664.8 -8697.4 -8546.2 -8568 -8400.7 
-8447.7 -8281.7 -8351.2 -8073.3 -8065.2 -7746.7 -7936.9 -7789.5 -7754.9 
-7667.6 -7692 -7621.5 -7949.3 -7358.7 -7794.9 -7935.2 -8082 -7955.7 
-7748.2 -7817.5 -7996.8 -7895.5 -8219.9 -8122.1 -8258.6 -8113 -7458.2 
-7392.2 -8400 -8307.3 -8507.1 -8374.8 -8502.1 -8411.3 -8647.8 -8552.3 
-8699.5 -8651 -8573.3 -8634.7 -8378.6 -8489 -8145.2 -8242.8 -7900.1 
-7981.8 -7657.8 -7756.6 -7497.8 -7534.8 -7320.6 -7370 -7206.8 -7239.3 
-7190.9 -7137.7 -7479.1 -7386.5 -7777.4 -7643.6 -8016.7 -7922 -8207.9 
-8097.6 -8400.2 -8339.4 -8533.2 -8460.9 -8676.8 -8595.9 -8629.6 -8693 
-8436 -8535.6 -8650.1 -8575 -8532.3 -8646.8 -8426.7 -8484.7 -8303.8 
-8376.6 -8145.7 -8260.7 -7917.9 -8057.7 -7656.7 -7801.6 -7334.6 -7555.7 
-7110.3 -7163.1 -7247.8 -7165.2 -7384.6 -7308.3 -7565.7 -7447.1 -7754.6 
-7643.7 -7994 -7851.5 -8224.2 -8076.6 -8472.9 -8310.1 -8634.7 -8548 
-8707.8 -8702.1 -8560.9 -8638.9 -8414.4 -8448.4 -8246.7 -8354.4 -8209.6 
-8225.1 -8128 -8273.5 -7960.1 -8008.4 -7935.7 -7954 -7907.8 -7948.8 
-7991.1 -7945.4 -7928.6 -8087.3 -7936.2 -8017.8 -7907.4 -7990.3 -7951.2 
-8073 -7966 -8071.3 -7886 -8047 -7918.7 -8043 -7864.7 -7994.8 
-7865.7 -8006.8 -7838.8 -7982.9 -7845.4 -8001.1 -7838.6 -7917.6 -7848.6 
-7964.1 -7851.6 -7936.2 -7790.4 -7968 -7819.3 -7941.9 -7769.2 -7962.6 
-7770.5 -7965.4 -7858 -7982.6 -7743.4 -7943.8 -7684.8 -7855.1 -7773.4 
-7798.7 -7813.1 -7819.3 -7757.2 -7822.2 -7844.9 -7881.9 -7782.9 -7884.2 
-7797.2 -7886.7 -7837 -7885.2 -7820.6 -7892.7 -7814.8 -7887.9 -7821.3 
-7887.7 -7806.6 -7878.7 -7798.6 -7868.8 -7799.6 -7857 -7790 -7847.3 
-7796.7 -7845.4 -7771 -7858.9 -7764.6 -7851.6 -7765.9 -7848.3 -7752.2 
-7828.2 -7775.1 -7803.8 -7791.2 -7867.1 -7737.2 -7830.2 -7729.7 -7809.5 
-7649.2 -7747 -7712.3 -7727.1 -7907.4 -8028.2 -7487.5 -7517.3 -7530.5 
-7992.7 -7825 -7740.9 -7744.7 -7900.1 -8011.3 -7948.6 -8126.8 -8002 
-7919.8 -8008.8 -8368.4 -8223.4 -8057 -8025 -8025.7 -8051 -8214.9 
-8231.3 -8333 -8342 -8550.9 -8455 -8028.1 -8039.8 -7960.8 -8006.6 
-8490.9 -8423.3 -8635.2 -8625.6 -7898 -7705.2 -8659.1 -8560.1 -8664.9 
-8670.1 -8461.4 -8577.9 -8184.5 -8330.1 -7936.7 -8066.7 -7713.9 -7825.7 
-7476.3 -7612.8 -7304.9 -7402.5 -7163.6 -7252.6 -7106.8 -7076 -7431.9 
-7325.2 -7780.6 -7549.5 -7995.9 -7866.1 -8200.5 -8073.6 -8361.4 -8258.2 
-8397.6 -8365.6 -8503.7 -8409.6 -8680.5 -8597.7 -8518.4 -8603.3 -8261.2 
-8384.1 -8513.3 -8548.8 -8421.5 -8472.2 -8287.7 -8322.8 -8136.4 -8188 
-7930.5 -8002.7 -7614.9 -7746.4 -7302.2 -7479.4 -7118.1 -7048.9 -7211.5 
-7133 -7357.7 -7297.8 -7589.9 -7465.8 -7795.7 -7670 -8038.9 -7916.1 
-8283.8 -8173.9 -8507.1 -8410.1 -8675.4 -8611.4 -8581.3 -8634.3 -8505.9 
-8563.7 -8350 -8426.8 -8151.3 -8282.8 -8015.9 -8079.5 -8053.5 -8074.1 
-8040.1 -7997.1 -8071.6 -8173.1 -8074.7 -8067.9 -8025.1 -7954.1 -7990.4 
-8007.5 -7993.8 -8041.5 -8005.6 -8067.8 -8027.3 -8051.5 -8040.4 -8093.5 
-8050.7 -8083.4 -8076.5 -8078.2 -8092.2 -8094.7 -8126.3 -8118.1 -8139.2 
-8151.8 -8177.5 -8147.4 -8182.2 -8166.2 -8155.3 -8143.1 -7975.8 -8042.2 
-7978.7 -8014.8 -8113 -8041.1 -7985.7 -8018.8 -7989.6 -8055.5 -8062.6 
-8115.7 -8035.5 -8123.7 -8028.1 -8111 -8028.8 -8087.2 -8023 -8101.8 
-8005.2 -8088.9 -8013.9 -8093.2 -8004 -8092.4 -8006.8 -8105 -7996.3 
-8075.7 -8026.1 -8093.6 -8039.6 -8135 -8036.4 -8121 -8041.7 -8105.8 
-8019.4 -8088.3 -7954.4 -8023.3 -7916 -7989 -7917.3 -7984.8 -7874.7 
-7976.7 -7905.1 -7958.1 -7703.4 -7902.8 -7989.5 -7853 -7930.9 -8001.6 
-8032.6 -8074.9 -8047 -8165.1 -8097.8 -8053.9 -8075.4 -8166 -8240.1 
-8144.4 -8131.3 -8168.7 -8144.9 -8062.5 -8307.7 -8240.7 -8500.4 -8449.3 
-8595.2 -8530.5 -8473.7 -8361.8 -8586.1 -8563.8 -8506 -8587.3 -8277.3 
-8213.5 -8088.6 -8164 -8362.4 -8282.3 -8057.1 -8093.3 -8088.3 -8133.1 
-8425.6 -8335.5 -8554.1 -8485.7 -8082.3 -8110.7 -8688.9 -8634.1 -8415.8 
-8477.8 -8181.9 -8215.2 -8150.8 -8243.4 -8183.3 -8230.5 -8184.2 -8252 
-8179.9 -8248.6 -8201 -8257.7 -8266.7 -8292.3 -8277.7 -8332.9 -8280.8 
-8323.3 -8291.4 -8346.3 -8304.1 -8340.8 -8294.5 -8348.8 -8295.9 -8355.8 
-8277.4 -8360.7 -8299 -8382.5 -8162.8 -8146.9 -8113.9 -8185.8 -8097.4 
-8140.4 -8101.6 -8148.9 -8144.5 -8146.7 -8239.3 -8232.1 -8258.2 -8251.7 
-8216.4 -8266.8 -8213.9 -8250.8 -8210.3 -8299.6 -8190.4 -8248.8 -8199.9 
-8319 -8227 -8293.5 -8235.5 -8247.4 -8169.1 -8324.8 -8618.1 -8642.4 
-8488.7 -8558.6 -8335.1 -8445.7 -8117.8 -8231.2 -7954.1 -8055.4 -7674.1 
-7817.1 -7372.9 -7583.5 -7088.5 -7177 -7161.5 -7214.9 -7298.9 -7271 
-7465.9 -7376.5 -7646.2 -7557.2 -7857.8 -7759.7 -8081.8 -7984.8 -8325.7 
-8191.8 -8577.3 -8455 -8536 -8469.3 -8682.3 -8628.5 -8719.5 -8760.4 
-8468.9 -8600.6 -8222.8 -8352.5 -7981.4 -8109.1 -7681.7 -7841 -7497.4 
-7617.2 -7316.3 -7418 -7149.2 -7207.7 -7179.9 -7189.4 -7401 -7283.5 
-7667.9 -7510.7 -7856.8 -7672.2 -8076.9 -7957.8 -8222.7 -8148.7 -8282.7 
-8342.5 -8242.6 -8248.3 -8205.6 -8332.1 -8178.1 -8287.1 -8200.3 -8302.7 
-8181 -8156.3 -8165.8 -8229.2 -8075.3 -8163.7 -8694.2 -8361.2 -8131.6 
-8231.5 -8403.3 -8334.7 -8251.5 -8252.4 -8182.3 -8229.5 -8347.1 -8232.1 
-8341.9 -8294 -8493.8 -8291 -8466.9 -8355.4 -8547.4 -8516.9 -8597.9 
-8570.5 -8530.5 -8570.8 -8631.5 -8424.7 -8512.7 -8299.6 -8319.3 -8357.2 
-8396.4 -8316.3 -8329.6 -8325.8 -8302.2 -8351.5 -8388.3 -8372.9 -8358.5 
-8361.4 -8418.2 -8383.9 -8352.7 -8361.2 -8368.3 -8319.4 -8359.9 -8345.7 
-8358.2 -8258.8 -8304.4 -8272.1 -8286.9 -8232.1 -8242.6 -8282.7 -8290.8 
-8321.3 -8329.2 -8360.1 -8428.7 -8319.9 -8329.2 -8288.7 -8391.7 -8252 
-8313.2 -8434.3 -8482.4 -8480.3 -8551.3 -8449.6 -8529.4 -8499.8 -8553.7 
-8449.1 -8560.4 -8451.2 -8527.9 -8443.7 -8502.5 -8431.6 -8500 -8420.8 
-8498 -8393.1 -8485.7 -8429 -8476.7 -8423.4 -8482 -8429.7 -8515.5 
-8423.6 -8518.4 -8449.7 -8529.3 -8440 -8505.5 -8418.1 -8480.3 -8344.4 
-8424.3 -8622.7 -8586.3 -8505.2 -8567.1 -8453.2 -8447.6 -8324.5 -8401.7 
-8133.4 -8277.9 -8002.7 -8049.3 -7742.9 -7888.7 -7428.6 -7575.2 -7063.1 
-7229 -7246.9 -7177 -7382.7 -7274.6 -7529.6 -7417.8 -7729.4 -7651 
-7980.8 -7848.1 -8265.7 -8112 -8467 -8366.7 -8471.7 -8391.1 -8581.5 
-8507.8 -8718.5 -8646.6 -8544 -8685 -8300.8 -8428.4 -8032.1 -8149 
-7827.7 -7902.5 -7648.5 -7733.1 -7467.8 -7550.4 -7340.3 -7372.2 -7214.2 
-7261.4 -7014.4 -7229.9 -7436.3 -7302.7 -7876.9 -7688.3 -8148.1 -7979.6 
-8248.1 -8162.9 -8523.2 -8345.8 -8392.5 -8608.4 -8560.5 -8316.3 -8302.2 
-8323.1 -8309.5 -8433.4 -8276.5 -8575.3 -8679.8 -8627 -8690.4 -8416.7 
-8413.3 -8472.2 -8599.2 -8603.4 -8614.4 -8494.7 -8575.2 -8477 -8472 
-8416.5 -8478.3 -8405 -8470.1 -8401.4 -8405.9 -8332.9 -8442.5 -8414.7 
-8453.7 -8388.2 -8453.5 -8429.7 -8425 -8433.4 -8465.3 -8476.7 -8505.5 
-8484.7 -8508.1 -8465.1 -8503 -8416.1 -8519.8 -8389.4 -8425.9 -8399.6 
-8447.5 -8385 -8463 -8421.5 -8446.9 -8694.9 -8669 -8648.1 -8667.9 
-8659.9 -8693.1 -8666.4 -8698.3 -8636.5 -8701 -8623 -8653.3 -8604.6 
-8644.7 -8609.8 -8636.2 -8600.1 -8632.9 -8598.9 -8625.5 -8579.8 -8610.6 
-8653.4 -8648.5 -8680.4 -8662.7 -8626 -8702.8 -8601.4 -8652.2 -8565.9 
-8645.8 -8529.2 -8602.8 -8576.5 -8639.7 -8437.4 -8532.1 -8329 -8392.6 
-8154 -8224.2 -7992.9 -8032.3 -7712.1 -7829.6 -7498.6 -7636.7 -7222.8 
-7409.1 -7107.4 -7077.3 -7241 -7131 -7426.1 -7307.1 -7615.8 -7481.2 
-7803.8 -7677.1 -8066.4 -7923.3 -8329.9 -8177.1 -8590.9 -8528.9 -8459.8 
-8683.4 -8634.5 -8725.2 -8732.1 -8472.5 -8583.9 -8205.5 -8320.5 -7948.8 
-8088.9 -7678.7 -7819.8 -7481.8 -7570.8 -7298.1 -7378.2 -7106.6 -7150.9 
-7144.7 -7079.7 -7436 -7370 -7676.6 -7624.6 -7951.4 -7781.5 -8136 
-8026.3 -8380.3 -8452.5 -8596.6 -8670.2 -8615.9 -8554.1 -8550 -8567.5 
-8549.3 -8491.1 -8629.5 -8526.5 -8538.7 -8633.2 -8558.3 -8474.7 -8542.2 
-8375.9 -8450.3 -8315.1 -8360.7 -8221.6 -8480.3 -8518 -8608.9 -8601.3 
-8537.6 -8566.4 -8510.4 -8565.7 -8522.5 -8521.4 -8542.5 -8541.7 -8545.2 
-8566 -8550 -8581.4 -8561.7 -8600.1 -8608.8 -8609.8 -8586 -8609.1 
-8448.2 -8566.7 -8694.3 -8643.9 -8576.5 -8617.5 -8582.3 -8626.9 -8522.9 
-8586.2 -8545.3 -8615.7 -8667.4 -8603.6 -8659.1 -8625.5 -8640 -8618.6 
-8667.4 -8616.2 -8648.9 -8612.9 -8683.4 -8614.8 -8640.3 -8610.4 -8624.5 
-8620.5 -8614.8 -8617.9 -8614.1 -8583.9 -8596.9 -8599.1 -8594.9 -8599.1 
-8619.6 -8558.5 -8605.4 -8528 -8641.9 -8556.8 -8600.3 -8540.2 -8442.6 
-8449.9 -8342.1 -8339.5 -8164.5 -8268.4 -7981.5 -8122.2 -7694.8 -7721.3 
-7238.6 -7487.2 -7162.9 -7069.3 -7236.2 -7142 -7370 -7346.1 -7531.1 
-7466.4 -7737.6 -7649.2 -7969.9 -7885.1 -8200.9 -8095.1 -8711.5 -8662.7 
-8571.9 -8673.2 -8305.9 -8438.4 -8066.7 -8188.8 -7849.4 -7948 -7650.3 
-7739.5 -7423 -7564.6 -7306.7 -7381.9 -7180.8 -7293 -7214.6 -7200.8 
-7451.9 -7231.3 -7708.9 -7592.6 -7969.5 -7889 -8592.4 -8682.9 -8601 
-8629.6 -8700.1 -8592.5 -8642.7 -8581.8 -8611.7 -8672.4 -8638.9 -8428.4 
-8477 -8499.9 -8454.6 -8524.2 -8640.4 -8680.1 -8445.5 -8531.1 -8309.1 
-8365.3 -8413 -8379.1 -8421.4 -8172.3 -8262.1 -8077.7 -8651.3 -8713.2 
-8543.3 -8488.4 -8518.9 -8499.5 -8528.9 -8487.6 -8508.4 -8511.5 -8505.7 
-8459.5 -8535 -8465.7 -8565.1 -8513.6 -8567.4 -8527.9 -8562 -8511.6 
-8555.4 -8507.3 -8557.5 -8499.9 -8499.8 -8518.3 -8475.8 -8509 -8496 
-8440.8 -8204.6 -8268.4 -8022.6 -8091.4 -7807.1 -7943.5 -7499.4 -7668.7 
-7302.1 -7422.3 -7050.8 -7101 -7272.2 -7197.3 -7419.3 -7308.1 -7609.4 
-7470.4 -7835.8 -7709.7 -8058.1 -7925.9 -8424.3 -8552.8 -8200.1 -8297.1 
-7940.8 -8092.7 -7738.9 -7816.5 -7519.5 -7626 -7352.9 -7375.8 -7169.2 
-7267.1 -7093.5 -7065.1 -7361.7 -7177.2 -7720.4 -7554 -8009.9 -7823.7 
-8618.9 -8621.1 -8629.8 -8644.6 -8627.1 -8675.1 -8605.4 -8646.7 -8603.6 
-8649.2 -8605.3 -8650.9 -8611.2 -8636.8 -8620.6 -8633.2 -8606.9 -8636.1 
-8638.8 -8678.5 -8679.2 -8687.7 -8652.4 -8671.9 -8537.8 -8728.4 -8707.8 
-8683.6 -8725.4 -8411.8 -8453.2 -8270.8 -8350.7 -8452.4 -8473.5 -8381.2 
-8553.7 -8667.3 -8055.1 -8153.2 -8444.3 -8453.6 -8323.5 -8445 -8480 
-8401.9 -7920.6 -7998 -8073.5 -8203.9 -8458 -8430.4 -8708.9 -8743.5 
-8472.1 -8462.1 -8406 -8429.7 -8362.5 -8368.5 -8361.4 -8375 -8369.1 
-8330.6 -8367 -8353.6 -8374.2 -8332.8 -8439 -8368.1 -8427.6 -8388.9 
-8410.6 -8413.9 -8201.7 -8298.9 -8542.7 -8452 -8714.3 -8648.5 -8679.4 
-8662.6 -8676.9 -8717.2 -7671.1 -7843.8 -7234.2 -7509.2 -6941.9 -7069.9 
-7187.2 -7157.1 -7234 -7211.6 -7467 -7369.3 -7680.4 -7595.4 -7895.9 
-7799.9 -7854.7 -7979.7 -7615.7 -7709.7 -7434.7 -7538.5 -7259.4 -7374 
-7192.1 -7247 -7111.7 -7267.6 -7490 -7292.6 -7679.3 -7597.6 -8055.9 
-8152.5 -8263.8 -8296.9 -8675.3 -8692.9 -8745.3 -8720.8 -8747 -8736.9 
-8752.1 -8714.3 -8735.1 -8728.3 -8729.7 -8691.9 -8686.2 -8688 -8692.4 
-8672 -8680.5 -8657.4 -8678.9 -8654.6 -8323.9 -8699.8 -8374.6 -8324.6 
-8341.4 -8147.4 -8220.1 -8005 -8386.6 -8336.1 -8389.7 -8156.5 -8276.8 
-7974.2 -8080.1 -7853.2 -8683.4 -8606.3 -8394.8 -8436.8 -8261 -8014.4 
-8168.4 -8414.4 -8224.4 -8631.3 -8489.2 -8691.9 -8715.6 -8690.1 -8714.6 
-8604.7 -8584.4 -8662 -8556.9 -8648.5 -8594.4 -8660 -8576.2 -8648.5 
-8596.4 -8629.3 -8580.6 -8631.9 -8562.9 -8575.3 -8564.5 -8567.5 -8504.1 
-8575.3 -8517.7 -7763.3 -7945.1 -7651.4 -7783.8 -7239.3 -7446.2 -7174.2 
-7129.8 -7338.2 -7270 -7481.7 -7392.9 -7689.7 -7582.5 -7862.7 -7764.6 
-7979.5 -8116.1 -7724.2 -7867.3 -7494.6 -7663.7 -7277.2 -7333.7 -7185.2 
-7205.3 -7093.4 -7083.1 -7323.9 -7306.4 -7647.6 -7558.3 -8358.6 -8306.4 
-8324 -8264.6 -8343.2 -8299.8 -8386.9 -8289.4 -8343.3 -8329.9 -8338.9 
-8300.6 -8354.2 -8336.4 -8347.7 -8333.3 -8279.9 -8275.1 -8242.8 -8251.1 
-8311.9 -8214 -8243.3 -8185.7 -7968 -8109 -8255.8 -8316.8 -8241.2 
-8073.1 -8106.5 -8519.8 -8637.5 -8633.7 -8506.9 -8528.9 -8275 -8382.8 
-7950.5 -8014.1 -7707.4 -8386.9 -8350.6 -8193.6 -8079.8 -8198.6 -7952.6 
-8417.5 -8325.7 -8433.9 -8356.5 -8394.6 -8313 -8405.9 -8325.5 -8381.2 
-8318.9 -8376.7 -8308.7 -8357.8 -8304 -8365.8 -8291.9 -8363 -8343.4 
-7590.8 -7830.7 -8200 -8118.8 -8174.1 -8104.2 -8147.8 -8117.5 -8109.9 
-8088.4 -8145.8 -8067.8 -8149.7 -8076 -8162.5 -8067.7 -8179.7 -8100.7 
-8168.4 -8136.2 -8163.7 -8110.3 -7351.1 -7506.3 -7044.9 -7219.7 -7143.2 
-7031.1 -7275.9 -7157.2 -7487.9 -7353.5 -7641.9 -7558.9 -7847.7 -7944.7 
-8113.9 -7628.3 -7710.6 -7466 -7513.5 -7309.6 -7379.4 -7223.7 -7231.8 
-7309.9 -7222.1 -7499.3 -7185.7 -8205.3 -8420.1 -8026.9 -8104.8 -8079.8 
-7996.9 -8299.3 -8342.9 -8176.4 -8109.4 -7901.2 -7993 -7690.6 -7749 
-7503.4 -7565.1 -7910 -7913.9 -8102.8 -8017.8 -8034.1 -7965.1 -7386 
-7411.9 -8119.1 -7977.1 -8157.3 -8283.5 -7956.2 -8062 -7775.2 -8174.2 
-8093.3 -7783.8 -7939.1 -7691.4 -7993.3 -7932.9 -8003.9 -7896.9 -8025.6 
-7989.8 -8034.6 -7964.7 -8106.8 -7987.2 -8130.5 -8030.2 -7221.6 -7290.2 
-6966.3 -7078.8 -7465.8 -7247.1 -8196.1 -8125.8 -8232.5 -8138.9 -8226.9 
-8163.2 -8225.8 -8161.4 -8211.9 -8140.9 -8161 -8118.1 -7539.4 -7683.4 
-7195.8 -7330.2 -7292.2 -7218.3 -7183.4 -7193 -7384.5 -7331.1 -7575 
-7475.9 -8058 -7677.6 -7827.4 -7854.9 -8088.3 -8156.8 -8031.7 -7603.1 
-7719.3 -7502.8 -7790 -7714 -7794.1 -7733 -7785.1 -7774 -7858.1 
-7716.1 -7970.3 -7906.9 -7739.3 -7749.9 -7517.4 -7595.4 -7418.7 -7788.6 
-7895.5 -7657.2 -7491.5 -7559.3 -7773.6 -7709.7 -8017.3 -7927.6 -7809.7 
-7772.6 -7996.5 -7947.7 -7983.4 -7896.8 -8016.6 -7939.1 -7999.4 -7942.5 
-7986.3 -7949.1 -7016.5 -7314.7 -7139.3 -7073.3 -7361.5 -7278.6 -7491.6 
-7391.1 -7266.6 -7365.5 -7195.9 -7210.2 -7173.7 -7134.6 -7731.3 -7784.1 
-7722 -7572.7 -7137.8 -7336.1 -7986.6 -7892.5 -7940.4 -7350.9 -7519.1 
-7209.5 -7529.2 -7598.7 -7337.3 -7431 -7670.1 -7494.6 -7513.2 -7795.8 
-7685.4 -7144.4 -7236 -7792.7 -7748 -7781.9 -7737.9 -7223.3 -7308.4 
-7194.1 -7154.9 -7808.3 -7743.5 -7861.7 -7774.9 -7837.4 -7693.8 -7745.2 
-7379.8 -7305.5 -7678 -7554.1 -7203.7 -7190.1 -7651.4 -7431.9 -7512.4 
-7618.7 -7540.2 -7781.3 -7838.2 -7792.4 -7602.3 -7690.3 -7376.2 -7031.8 
-7253.1 -7356.5 -7459 -7547.5 -7536.5 -7607.8 -7376.8 -7373.3 -7293.8 
-7556 -7572.8 -7375.7 -7643.6 -7658.9 -7653.9 -7577 -7609.9 -7515.5 
-7638.4 -7555.7 -7649.7 -7590 -7062 -7051.5 -7288.4 -7013.1 -7248.2 
-7274.7 -7181.5 -7256.7 -7308 -7395.7 -7607.9 -7488.1 -7354 -7444.2 
-7268.3 -7109.1 -7199.2 -7071.7 -7157.6 -7165.6 -7333.3 -7394.2 -7462.6 
-7312.5 -7340.3 -7240.8 -7278.6 -7443.2 -7406.5 -7445.4 -7368.4 -7071.7 
-7098.5 -7170.8 -7150.6 -7464.6 -7116.2 -7378 -7286.4 -7332.3 -7311.9 
-7174.8 -7302.3 -7267 -7305.1 -7128.9 -7156.5 -7184.4 -7174.1 -7246.3 
-7208.9 -7084.1 -7177.7 -7047.1 14601 21758 29899 35978 -4467.2 
-290.3 5581 10451 -8998.1 -8514.7 -7395.1 -5887.8 -9457.7 -9330.8 
-9248 -9255.1 -9626.4 -9581.7 -9568.2 -9610.5 -9725.6 -9712.4 -9718.5 
-9757.1 -9795.5 -9783.3 -9800.3 -9849.2 -9821 -9831.3 -9862.5 -9898.1 
-9846.9 -9824.7 -9831.3 -9868.9 -9447.9 -9472.9 -9519.4 -9565 -9579.7 
-9928.9 -10100 -9632.1 -9969.4 -10379 -9744.8 -9977.6 -10453 -9772.4 
-10003 -10482 -9765 -10034 -10471 -9740.9 -10038 -10508 -9671 
-10047 -10514 -9622.1 -10058 -10601 -9564.1 -10077 -10533 -9564.7 
-10074 -10471 -9607.3 -10050 -10472 -9579.4 -10033 -10469 -9526.3 
-10053 -10512 -9555.7 -10068 -10417 -9631.3 -10042 -10489 -9668.5 
-10030 -10434 -9683.9 -10043 -10405 -9683.2 -10043 -10439 -9689.2 
-10014 -10438 -9767.9 -9973.8 -10188 12381 8249.6 4331.7 -601.31 
-4583 -5762.6 -6714.8 -7795.9 -9124.8 -9170.4 -9294.8 -9471.5 -9622.5 
-9591.3 -9629.5 -9703.2 -9807 -9766.2 -9773.5 -9809.7 -9906.3 -9869.8 
-9863.3 -9871.7 -9966.1 -9936.3 -9917.6 -9918.7 -9987.5 -9943.6 -9945.5 
-9965.2 -9953.6 -9955.9 -9947.2 -9942.5 -9769.3 -9728.1 -9719.6 -9714.3 
-9888.7 -9860.6 -9814.6 -9635.7 -9850.7 -9846.5 -9666 -9885.5 -9885.1 
-9628.2 -9898.4 -9882.3 -9801.1 -9975.6 -9998.7 -9790.7 -10003 -9975.1 
-9792.3 -10002 -9962.1 -9575.6 -9941.7 -9927.6 -1430.8 -1332.7 -1076.2 
-800.45 -8327.8 -8079.9 -8034.3 -8231.4 -9109.5 -8951.6 -8919.5 -9082.1 
-9395.2 -9333.7 -9331.5 -9405.3 -9594.8 -9571 -9571.7 -9593.2 -9702.5 
-9688.7 -9683.3 -9701.2 -9773.8 -9762.9 -9762.2 -9772.9 -9827.8 -9817.2 
-9813 -9818.2 -9963.1 -9958.1 -9924.4 -9877.1 -9721.6 -9718.4 -9770.6 
-9871.7 -6713.1 -6397.5 -6375.9 -7087.6 -9525 -9444.8 -9383.5 -9447.6 
-9527 -9422 -9423.2 -9479 -9700.6 -9609.6 -9618.2 -9664.9 -9789.6 
-9721.1 -9732.3 -9760.8 -9833.2 -9794.7 -9802.1 -9821.9 -9868.9 -9849.2 
-9854 -9882 -9891.2 -9871.5 -9876.4 -9906.7 -9902.3 -9886.7 -9888.7 
-9903.9 -9518.4 -9492 -9476.2 -9500.2 -9595.6 -9994 -9799.3 -9626.2 
-9987 -9735.6 -9639.9 -9986.6 -9859.1 -9681.2 -9979.8 -9954.3 -9708.2 
-9975.7 -9957 -9714.8 -9978.1 -9928.8 -9657.4 -9998.5 -9922.6 -9710.7 