# vtk DataFile Version 4.2
vtk output
ASCII
DATASET UNSTRUCTURED_GRID
POINTS 8741 float
-49.8663 -42.4872 29.0722 -49.8665 -30.4872 29.0688 -49.8672 30.5128 29.0516 
-49.8674 42.5128 29.0482 -45.871 46.5128 28.8773 -33.8818 46.5128 28.3679 
27.0632 46.5128 25.7783 39.0524 46.5128 25.2688 43.0488 42.5128 25.1001 
43.0489 30.5128 25.1035 43.0497 -30.4872 25.1208 43.0498 -42.4872 25.1241 
39.0535 -46.4872 25.2951 27.0643 -46.4872 25.8045 -45.8699 -46.4872 28.9035 
-33.8807 -46.4872 28.3941 26.6599 46.5101 16.2868 25.7684 46.5042 -4.69424 
37.7576 46.5042 -5.20367 38.6491 46.5101 15.7774 -34.2851 46.5101 18.8764 
-46.2743 46.5101 19.3859 -47.1658 46.5042 -1.59522 -35.1766 46.5042 -2.10465 
42.6455 42.5101 15.6087 -50.2706 42.5101 19.5568 41.754 42.5042 -5.37235 
41.7542 30.5042 -5.36896 42.6456 30.5101 15.6121 -50.2705 30.5101 19.5602 
-51.162 30.5042 -1.42089 -51.1622 42.5042 -1.42428 42.6464 -30.4899 15.6293 
-50.2698 -30.4899 19.5774 41.7549 -30.4958 -5.35174 41.755 -42.4958 -5.34836 
42.6465 -42.4899 15.6327 -50.2696 -42.4899 19.5808 -51.1611 -42.4958 -1.40029 
-51.1613 -30.4958 -1.40367 38.6502 -46.4899 15.8036 -46.2732 -46.4899 19.4121 
37.7587 -46.4958 -5.17742 25.7695 -46.4958 -4.66799 26.661 -46.4899 16.3131 
-34.284 -46.4899 18.9027 -35.1755 -46.4958 -2.0784 -47.1647 -46.4958 -1.56897 
-34.2842 -26.4899 18.897 -30.2878 -30.4899 18.7283 -30.2877 -42.4899 18.7317 
22.6646 -42.4899 16.4818 22.6644 -30.4899 16.4784 26.6607 -26.4899 16.3074 
38.6499 -26.4899 15.798 38.6493 26.5101 15.783 26.6601 26.5101 16.2925 
22.6637 30.5101 16.4611 22.6635 42.5101 16.4578 -30.2887 42.5101 18.7077 
-30.2885 30.5101 18.7111 -34.2849 26.5101 18.8821 -46.2741 26.5101 19.3915 
-46.2734 -26.4899 19.4065 49.0055 30.4926 -46.7141 49.0053 46.4926 -46.7186 
40.0133 55.4926 -46.339 24.0277 55.4926 -45.6598 24.0278 46.4926 -45.6573 
20.0315 42.4926 -45.4863 20.0315 41.6926 -45.4861 -6.44461 41.6926 -44.3611 
-6.44448 31.2926 -44.3582 20.0316 31.2926 -45.4832 20.0316 30.4926 -45.4829 
24.0281 26.4926 -45.6516 24.8274 26.4926 -45.6856 24.8277 -0.00742 -45.6781 
35.2183 -0.00742 -46.1196 35.218 26.4926 -46.1271 40.0136 30.4926 -46.332 
36.0173 26.4926 -46.161 36.7812 46.4977 -28.1829 24.792 46.4977 -27.6735 
24.7919 55.4977 -27.676 40.7774 55.4977 -28.3553 49.7694 46.4977 -28.7348 
49.7696 30.4977 -28.7303 40.7776 42.4977 -28.3516 40.7777 30.4977 -28.3482 
25.7684 46.5042 -4.69424 21.772 42.5042 -4.5233 21.7722 30.5042 -4.51991 
25.7686 26.5042 -4.68859 37.7578 26.5042 -5.19802 41.7542 30.5042 -5.36896 
37.7576 46.5042 -5.20367 41.754 42.5042 -5.37235 20.541 31.296 -33.494 
20.5409 41.696 -33.4969 -5.93506 31.296 -32.369 -5.93518 41.696 -32.3719 
35.7274 26.496 -34.1379 25.3368 26.496 -33.6964 35.7277 -0.00403 -34.1304 
25.3371 -0.00403 -33.6889 21.772 42.5042 -4.5233 21.7722 30.5042 -4.51991 
25.7686 26.5042 -4.68859 37.7578 26.5042 -5.19802 -48.1068 26.4926 -42.5866 
-48.1065 -0.00742 -42.5791 -37.7159 -0.00742 -43.0206 -37.7162 26.4926 -43.0281 
-36.9169 26.4926 -43.062 -32.9206 30.4926 -43.233 -32.9206 31.2926 -43.2332 
-6.44448 31.2926 -44.3582 -6.44461 41.6926 -44.3611 -32.9207 41.6926 -43.2361 
-32.9207 42.4926 -43.2364 -36.9172 46.4926 -43.0677 -36.9173 55.4926 -43.0702 
-52.9029 55.4926 -42.391 -61.8946 46.4926 -42.0064 -61.8944 30.4926 -42.0019 
-52.9025 30.4926 -42.3839 -48.9061 26.4926 -42.5526 -61.1303 30.4977 -24.0181 
-61.1305 46.4977 -24.0226 -52.1387 55.4977 -24.4072 -36.1531 55.4977 -25.0864 
-36.153 46.4977 -25.0839 -48.1422 46.4977 -24.5745 -52.1385 42.4977 -24.4035 
-52.1384 30.4977 -24.4002 -35.1766 46.5042 -2.10465 -31.1802 42.5042 -2.27333 
-31.18 30.5042 -2.26994 -35.1764 26.5042 -2.099 -47.1656 26.5042 -1.58957 
-51.162 30.5042 -1.42089 -47.1658 46.5042 -1.59522 -51.1622 42.5042 -1.42428 
-32.4112 31.296 -31.244 -32.4113 41.696 -31.247 -5.93518 41.696 -32.3719 
-5.93506 31.296 -32.369 -47.5974 26.496 -30.5974 -37.2068 26.496 -31.0389 
-37.2065 -0.00403 -31.0314 -47.5971 -0.00403 -30.5899 -31.1802 42.5042 -2.27333 
-31.18 30.5042 -2.26994 -35.1764 26.5042 -2.099 -47.1656 26.5042 -1.58957 
35.2186 -26.5074 -46.1121 35.2183 -0.00742 -46.1196 24.8277 -0.00742 -45.6781 
24.828 -26.5074 -45.6706 24.0287 -26.5074 -45.6367 20.0324 -30.5074 -45.4657 
20.0324 -31.3074 -45.4655 -6.44373 -31.3074 -44.3405 -6.44361 -41.7074 -44.3376 
20.0325 -41.7074 -45.4626 20.0325 -42.5074 -45.4623 24.0289 -46.5074 -45.631 
24.0291 -55.5074 -45.6285 40.0146 -55.5074 -46.3077 49.0064 -46.5074 -46.6923 
49.0062 -30.5074 -46.6968 40.0143 -30.5074 -46.3148 36.0179 -26.5074 -46.1461 
49.7704 -30.5023 -28.7131 49.7705 -46.5023 -28.7085 40.7788 -55.5023 -28.3239 
24.7932 -55.5023 -27.6447 24.7931 -46.5023 -27.6472 36.7823 -46.5023 -28.1567 
40.7786 -42.5023 -28.3276 40.7785 -30.5023 -28.331 25.7695 -46.4958 -4.66799 
21.7731 -42.4958 -4.49931 21.7729 -30.4958 -4.5027 25.7693 -26.4958 -4.67363 
37.7584 -26.4958 -5.18306 41.7549 -30.4958 -5.35174 37.7587 -46.4958 -5.17742 
41.755 -42.4958 -5.34836 20.5418 -31.304 -33.4763 20.5419 -41.704 -33.4734 
-5.93418 -41.704 -32.3484 -5.9343 -31.304 -32.3513 35.728 -26.504 -34.123 
25.3374 -26.504 -33.6814 25.3371 -0.00403 -33.6889 35.7277 -0.00403 -34.1304 
21.7731 -42.4958 -4.49931 21.7729 -30.4958 -4.5027 25.7693 -26.4958 -4.67363 
37.7584 -26.4958 -5.18306 -47.1649 -26.4958 -1.57461 -35.1757 -26.4958 -2.08404 
-31.1793 -30.4958 -2.25272 -31.1792 -42.4958 -2.24933 -36.9163 -26.5074 -43.0471 
-48.9055 -26.5074 -42.5376 -48.1062 -26.5074 -42.5716 -47.5968 -26.504 -30.5824 
-37.2061 -26.504 -31.0239 -37.7156 -26.5074 -43.0131 -32.9197 -42.5074 -43.2124 
-32.9198 -30.5074 -43.2158 -32.9198 -31.3074 -43.2155 -32.4104 -31.304 -31.2263 
-32.4103 -41.704 -31.2234 -32.9197 -41.7074 -43.2126 -52.1375 -42.5023 -24.3795 
-52.1377 -30.5023 -24.3829 -48.1411 -46.5023 -24.5482 -36.1519 -46.5023 -25.0576 
-47.5971 -0.00403 -30.5899 -37.2065 -0.00403 -31.0314 -37.7159 -0.00742 -43.0206 
-48.1065 -0.00742 -42.5791 -5.9343 -31.304 -32.3513 -5.93418 -41.704 -32.3484 
-6.44373 -31.3074 -44.3405 -6.44361 -41.7074 -44.3376 -36.1518 -55.5023 -25.0551 
-52.1374 -55.5023 -24.3759 -61.1294 -46.5023 -23.9963 -61.1296 -30.5023 -24.0009 
-61.8937 -30.5074 -41.9846 -52.9018 -30.5074 -42.3667 -61.8935 -46.5074 -41.9801 
-36.916 -46.5074 -43.0414 -36.9159 -55.5074 -43.0389 -52.9015 -55.5074 -42.3596 
-47.3992 -46.1827 28.9684 -48.6958 -45.3156 29.0233 -49.5621 -44.0179 29.0597 
-49.8664 -39.4872 29.0714 -49.8664 -36.4872 29.0705 -49.8664 -33.4872 29.0697 
-49.8665 -27.4372 29.068 -49.8666 -24.3872 29.0671 -49.8666 -21.3372 29.0662 
-49.8666 -18.2872 29.0654 -49.8667 -15.2372 29.0645 -49.8667 -12.1872 29.0637 
-49.8667 -9.13721 29.0628 -49.8668 -6.08721 29.0619 -49.8668 -3.03721 29.0611 
-49.8668 0.01278 29.0602 -49.8669 3.06278 29.0594 -49.8669 6.11278 29.0585 
-49.867 9.16278 29.0576 -49.867 12.2128 29.0568 -49.867 15.2628 29.0559 
-49.8671 18.3128 29.055 -49.8671 21.3628 29.0542 -49.8671 24.4128 29.0533 
-49.8672 27.4628 29.0525 -49.8672 33.5128 29.0508 -49.8673 36.5128 29.0499 
-49.8673 39.5128 29.0491 -49.5632 44.0435 29.0349 -48.6969 45.3412 28.9977 
-47.4003 46.2083 28.9424 -42.8737 46.5128 28.7499 -39.8764 46.5128 28.6226 
-36.8791 46.5128 28.4952 -30.8346 46.5128 28.2384 -27.7873 46.5128 28.1089 
-24.7401 46.5128 27.9794 -21.6928 46.5128 27.8499 -18.6456 46.5128 27.7205 
-15.5983 46.5128 27.591 -12.5511 46.5128 27.4615 -9.50382 46.5128 27.332 
-6.45657 46.5128 27.2025 -3.40932 46.5128 27.0731 -0.36207 46.5128 26.9436 
2.68518 46.5128 26.8141 5.73243 46.5128 26.6846 8.77967 46.5128 26.5551 
11.8269 46.5128 26.4257 14.8742 46.5128 26.2962 17.9214 46.5128 26.1667 
20.9687 46.5128 26.0372 24.0159 46.5128 25.9077 30.0605 46.5128 25.6509 
33.0578 46.5128 25.5236 36.0551 46.5128 25.3962 40.5817 46.2083 25.2039 
41.8782 45.3412 25.1491 42.7446 44.0435 25.1126 43.0488 39.5128 25.101 
43.0489 36.5128 25.1019 43.0489 33.5128 25.1027 43.049 27.4628 25.1044 
43.049 24.4128 25.1053 43.049 21.3628 25.1061 43.0491 18.3128 25.107 
43.0491 15.2628 25.1078 43.0492 12.2128 25.1087 43.0492 9.16278 25.1096 
43.0492 6.11278 25.1104 43.0493 3.06278 25.1113 43.0493 0.01278 25.1122 
43.0494 -3.03721 25.113 43.0494 -6.08721 25.1139 43.0494 -9.13721 25.1147 
43.0495 -12.1872 25.1156 43.0495 -15.2372 25.1165 43.0495 -18.2872 25.1173 
43.0496 -21.3372 25.1182 43.0496 -24.3872 25.119 43.0496 -27.4372 25.1199 
43.0497 -33.4872 25.1216 43.0498 -36.4872 25.1224 43.0498 -39.4872 25.1233 
42.7456 -44.0179 25.1375 41.8793 -45.3156 25.1747 40.5828 -46.1827 25.23 
36.0562 -46.4872 25.4224 33.0589 -46.4872 25.5498 30.0616 -46.4872 25.6772 
24.017 -46.4872 25.934 20.9698 -46.4872 26.0635 17.9225 -46.4872 26.1929 
14.8753 -46.4872 26.3224 11.828 -46.4872 26.4519 8.78079 -46.4872 26.5814 
5.73354 -46.4872 26.7109 2.68629 -46.4872 26.8403 -0.36096 -46.4872 26.9698 
-3.40821 -46.4872 27.0993 -6.45546 -46.4872 27.2288 -9.50271 -46.4872 27.3583 
-12.55 -46.4872 27.4877 -15.5972 -46.4872 27.6172 -18.6444 -46.4872 27.7467 
-21.6917 -46.4872 27.8762 -24.739 -46.4872 28.0057 -27.7862 -46.4872 28.1352 
-30.8335 -46.4872 28.2646 -36.878 -46.4872 28.5215 -39.8753 -46.4872 28.6488 
-42.8726 -46.4872 28.7762 26.7943 46.511 19.4506 26.9287 46.5119 22.6145 
25.8957 46.505 -1.69694 26.0231 46.5059 1.30035 26.1504 46.5067 4.29765 
26.2778 46.5075 7.29494 26.4052 46.5084 10.2922 26.5325 46.5093 13.2895 
28.7657 46.5042 -4.8216 31.763 46.5042 -4.94895 34.7603 46.5042 -5.07631 
37.8849 46.505 -2.20637 38.0123 46.5059 0.79092 38.1396 46.5067 3.78822 
38.267 46.5075 6.78551 38.3943 46.5084 9.78281 38.5217 46.5093 12.7801 
38.7835 46.511 18.9412 38.9179 46.5119 22.105 -34.1507 46.511 22.0402 
-34.0163 46.5119 25.204 23.6126 46.5101 16.4163 20.5654 46.5101 16.5458 
17.5181 46.5101 16.6753 14.4709 46.5101 16.8048 11.4236 46.5101 16.9342 
8.37638 46.5101 17.0637 5.32913 46.5101 17.1932 2.28188 46.5101 17.3227 
-0.76537 46.5101 17.4521 -3.81262 46.5101 17.5816 -6.85987 46.5101 17.7111 
-9.90712 46.5101 17.8406 -12.9544 46.5101 17.9701 -16.0016 46.5101 18.0995 
[...]
CELL_DATA 12638
SCALARS cell_scalars float
LOOKUP_TABLE default
-7684.1 -7467.6 -7772.6 -7937.3 -7417.4 -7775.3 -7749.9 -7603.4 -7813.1 
-7374.7 -7592.9 -7036.2 -7251.3 -6599.8 -6843.9 -6231.2 -6612.8 -5830.6 
-6152.8 -5917.7 -6503 -6592 -7152.4 -7037.8 -7483 -7271.9 -7638.4 
-7440.3 -7642.3 -7071.8 -7297.5 -6646.5 -6863.8 -6186.5 -6484.1 -5821.5 
-6262.3 -5755.7 -6507.6 -6398.3 -6997.1 -6878.4 -7416.8 -7223.2 -7653.8 
-7430.6 -7736.4 -7180.4 -7383.3 -6760 -6971.1 -6263.2 -6509.1 -5873.7 
-6397.7 -5556.8 -6253.9 -6250.2 -6869.7 -6708.3 -7277.6 -7083.6 -7605.1 
-7440.5 -7941.8 -7944.7 -7705.5 -7957.1 -7890.2 -7540.6 -7735.2 -7463.4 
-7721.2 -7431.7 -7671.4 -7385.2 -7666.9 -7390.3 -7673.5 -7403.7 -7677.2 
-7418 -7681.5 -7423.4 -7682.8 -7441.7 -7675.1 -7438.2 -7683.5 -7449.6 
-7684.6 -7414.4 -7668.1 -7432.9 -7679.5 -7435.4 -7660 -7431 -7668.4 
-7421.9 -7672.7 -7422.4 -7650.6 -7407.6 -7664.3 -7424.8 -7668.4 -7424.5 
-7652.7 -7410.9 -7649.9 -7412.4 -7654.7 -7390 -7634.3 -7359.3 -7613.6 
-7336.7 -7617.7 -7363.2 -7613 -7365.3 -7620.9 -7398 -7670.1 -7476.2 
-7845.3 -7895.7 -7655 -7946.9 -7969.8 -7529.2 -7704.7 -7228.6 -7407.9 
-6763.4 -6903.7 -6227.6 -6412.5 -5666 -6272.2 -5892.2 -6630.1 -6257.6 
-6876 -6675.1 -7302.7 -7111 -7638.6 -7404.6 -7671.3 -7264.7 -7473.1 
-6949.4 -7065.8 -6502.5 -6603.1 -5906.1 -6231.5 -5781.7 -6588.4 -6158.4 
-6812.7 -6545.2 -7214.6 -7003.4 -7571.3 -7433.6 -7671.7 -7255.4 -7528.4 
-7087.9 -7217.4 -6663.6 -6715.2 -6073.3 -6119.8 -5752.2 -6472.1 -6039.2 
-6655.6 -6473.9 -7133.4 -6882.2 -7502.7 -7344.1 -7804.5 -7641.5 -8007.3 
-7884.9 -7553.2 -7709.3 -7796.2 -7431.6 -7723.8 -7285.4 -7601.3 -7327.9 
-7639.4 -7298.4 -7586.5 -7291.5 -7604.8 -7299.8 -7622.2 -7275 -7600.6 
-7301.8 -7580.5 -7276.4 -7608.4 -7286.8 -7625.3 -7276.7 -7586.3 -7281 
-7572.9 -7292.5 -7582.5 -7250.3 -7576.2 -7249.7 -7613.5 -7242.6 -7593.9 
-7244.7 -7577.4 -7254.2 -7565.6 -7252.5 -7564.7 -7233.4 -7577.1 -7241.7 
-7580.4 -7255.5 -7571.6 -7204.4 -7553.9 -7215.8 -7543.2 -7208 -7565.3 
-7213.6 -7578.3 -7216.9 -7594.1 -7244 -7213.8 -7382.9 -7338.3 -7376.9 
-7297.6 -7349.3 -7257.5 -7303.2 -7163.9 -7188.1 -7120.4 -7184.4 -7303.5 
-7257.4 -6917.2 -7013.4 -7050.7 -7207.5 -6604.8 -6793.4 -6203 -6340.5 
-5814.3 -5936 -5596.9 -5643.4 -5878.9 -5586.5 -6401.4 -6159.4 -6795.5 
-6596.8 -6992.7 -6889.6 -7160.3 -7063.2 -6751.4 -6981.9 -6314.9 -6535.4 
-5910.3 -6074.4 -5583.2 -5752.6 -5674.1 -5545.6 -6256.8 -5940.6 -6664.2 
-6460.8 -6993.2 -6800.3 -7187.1 -7055.4 -6876.2 -7073.4 -6416.4 -6620.6 
-5972.5 -6121.6 -5642.8 -5729.3 -5504.4 -5519.1 -6010.8 -5822 -6595.3 
-6293.1 -7256 -7312 -7169.1 -7282.3 -7318.3 -7316.5 -7306.8 -7318.4 
-7280.4 -7324.7 -7318.1 -7300.8 -7319.7 -7286.2 -7310.9 -7284.3 -7266.9 
-7267.2 -7290.1 -7269.6 -7249.3 -7242.4 -7261.4 -7264.8 -7241.2 -7243 
-7243.1 -7245.3 -7247.1 -7247.5 -7259.7 -7237 -7267.6 -7245.2 -7271 
-7251.7 -7275.1 -7263.6 -7299.3 -7272.1 -7299.2 -7256.2 -7322 -7255.5 
-7301.5 -7280.3 -7307.5 -7256.8 -7296.8 -7246 -7317.4 -7206 -7285.6 
-7184.7 -7087.1 -7108.4 -7035.6 -7143.8 -7006.6 -7124 -7026.9 -7182.9 
-7027.8 -7180.2 -7126.6 -7189 -7095.4 -7189.2 -7115.4 -7187.2 -7117.2 
-7180.7 -7102.1 -7204.9 -7095.6 -7200.2 -7112.7 -7207.2 -7109.8 -7209.4 
-7120.7 -7204.2 -7120.9 -7202.4 -7115.4 -7211.3 -7127.3 -7208.4 -7135.7 
-7219.5 -7128.3 -7199.4 -7133.8 -7166.5 -7097.1 -7140.8 -7073 -7128.9 
-7045.7 -7131.3 -7039.5 -7103.2 -7063.6 -7159 -7025.6 -6855 -6957 
-6437.8 -6582.3 -5939.8 -6153.8 -5466.4 -5536.9 -5688.3 -5555.7 -6025.9 
-5838.7 -6507.8 -6243 -6939.8 -6702.8 -7162 -7096.2 -6950.5 -7028.3 
-6615.5 -6764.8 -6167 -6389.8 -5579 -5823 -5639 -5540.5 -5956.9 
-5759.3 -6400.3 -6134 -6837.9 -6602.8 -7155.5 -7038.4 -7004.1 -7029.3 
-6715.1 -6842.2 -6352.3 -6544.1 -5742.6 -6078.2 -5578.9 -5472.2 -5831.5 
-5660.7 -6234.9 -5988.6 -6698 -6419 -7130.7 -6895 -6921.3 -7239.6 
-7113.7 -6997.7 -7248.6 -6738 -7178 -7165.8 -7125.6 -6691.4 -6908.1 
-6900.2 -6866 -6588.7 -6742.1 -6248.8 -6452.9 -6214.4 -6380 -7274.7 
-7227.6 -5837.7 -6034.4 -5655.4 -5928.7 -5542.6 -5707.9 -5726.8 -5503.6 
-6241.3 -5892.9 -6615 -6393 -6886.2 -6730.8 -7050.7 -6956.4 -6942.2 
-7119.5 -6490 -6689.8 -6032.9 -6234.6 -5673.7 -5822.4 -5518.9 -5541.6 
-5979.2 -5683.6 -6467.4 -6279.8 -6820.3 -6687.5 -7076.6 -6962.7 -7023.7 
-7141.5 -6548.4 -6778.9 -6042.5 -6285.1 -5680.3 -5855.5 -5485.7 -5493.6 
-5810.9 -5477 -5473.2 -5430.3 -5806.9 -5590.3 -6201.2 -5974.5 -6657.8 
-6404.1 -7032.5 -6866.7 -7005.9 -7108 -6762.2 -6933.3 -6417.9 -6594 
-5890.1 -6172.3 -5484.7 -5563.1 -5746.8 -5616.5 -6131 -5904.7 -6555.1 
-6309.9 -7008.8 -6781.2 -7017.1 -7156.6 -6858.3 -6958.3 -6549.9 -6753.6 
-6210.8 -6372.5 -5551.9 -5927.9 -5716.5 -5582.9 -5960.5 -5827.6 -6302.6 
-6108.2 -6306.2 -6018.3 -6814.1 -6554.6 -7150.5 -7057.2 -7107.6 -7029.3 
-7112.7 -7020.3 -7191 -7058.8 -7127.1 -7047.9 -7128.8 -7018.1 -7136.4 
-7000.6 -7119.6 -7029.1 -7141.5 -7045.4 -7118.6 -7025.3 -7138.4 -7043 
-7132 -7028.4 -7145.2 -7041.3 -7150.2 -7032.9 -7161.1 -7050.2 -7192.3 
-7069.6 -7208.6 -7080.4 -7235.1 -7112.8 -7230.1 -7120 -7222.9 -7110.7 
-7225.3 -7098 -7150.1 -7098.4 -7170 -7066.4 -7175.6 -7085.1 -6873.2 
-6825 -6826.8 -6779.4 -6899.4 -6800.8 -6858.6 -6806.7 -6898 -6829.4 
-6925.8 -6763.8 -6914.5 -6851.2 -6972.7 -6865.6 -6947.7 -6847.3 -6949.6 
-6852.4 -6968.9 -6868.1 -6939.9 -6871.5 -6932.2 -6876.9 -6936.8 -6890.6 
-6906.8 -6882.5 -6935.6 -6826.5 -6915.4 -6792.9 -6912.8 -6804.7 -6894.6 
-6809.8 -6878.8 -6836.2 -6923.7 -6817.9 -6956.6 -6883.4 -6904.5 -6851 
-6890.6 -6830.7 -6902.8 -6797.7 -6661.9 -6853 -7265.4 -7278.9 -7233.1 
-6965.3 -7133.6 -6881.4 -6871.3 -6659.7 -6472.1 -6579.1 -6363.2 -6520.3 
-6641.2 -6536.3 -5837 -6215.8 -6454.3 -6640.2 -6785.2 -6620.9 -6050.7 
-6197.7 -5778.9 -5843.6 -5355.1 -5748.5 -6803.6 -6651.9 -6636.6 -6541.6 
-5600.7 -5708.5 -5551.9 -5416.4 -7040.1 -7205.2 -5957.2 -5616.4 -6371.6 
-6171.9 -6797.3 -6605.6 -7000.6 -6953.7 -7138.9 -7103.4 -6656.6 -6888.9 
-6181 -6429.1 -5773.3 -5973.8 -5452.8 -5606.9 -5834 -5488 -6373.3 
-6087.5 -6729.6 -6497.6 -6999.6 -6888.2 -7110.2 -7094.3 -6740.1 -6977.5 
-6300.7 -6535.8 -5921.5 -6127 -5512.1 -5684.5 -5454.2 -5421 -6046 
-5646.9 -5931.6 -5750.5 -6366.8 -6142.1 -6857.6 -6634.3 -7164.3 -7108.8 
-6947 -7059.7 -6689.8 -6810.1 -6299 -6472.2 -5683.6 -6016.1 -5516.4 
-5412.7 -5853.5 -5664.3 -6281.7 -6065.6 -6743.8 -6502 -7168.2 -6981 
-7011.1 -7067.8 -6798.1 -6926.7 -6302 -6551.9 -5783 -5987 -5459.9 
-5494.3 -5786.2 -5671.7 -6127.3 -5901.4 -6542.6 -6357.3 -6774.6 -6662.8 
-6815.8 -6644.3 -6799.1 -6665.8 -6752.6 -6667.2 -6751.4 -6664.9 -6772 
-6630.6 -6784.8 -6632.8 -6784.8 -6651.3 -6788.4 -6675.1 -6796.2 -6668.4 
-6813.2 -6692 -6809.2 -6705.2 -6819.7 -6708.4 -6877.5 -6735.9 -6894.5 
-6758.3 -6888.7 -6756.5 -6894.3 -6744.5 -6882.1 -6756.3 -6853.2 -6739.9 
-6782.9 -6656.9 -6842.4 -6685.6 -6655.1 -6572.1 -6705.7 -6518.2 -6618.8 
-6546 -6572.7 -6488.3 -6541.9 -6440.8 -6560 -6475.9 -6567.8 -6446.3 
-6599.3 -6488.9 -6587.5 -6460.6 -6592.7 -6475.9 -6609.9 -6474.2 -6603.1 
-6493.6 -6634.9 -6539.4 -6663.6 -6534.5 -6659.6 -6567.6 -6669.2 -6593.5 
-6723 -6610.3 -6699 -6665.2 -6696.2 -6514.9 -6648.1 -6573.2 -6678.5 
-6531.6 -6681.9 -6509.3 -7224 -7164.7 -6968.5 -6711.4 -6535.6 -6763.5 
-6790.5 -6712.8 -6364.4 -6265.1 -6278.4 -6436.8 -6387 -6258.1 -6130.6 
-6344.3 -6359.9 -6212.5 -6379 -6438 -5834.6 -6022.1 -5548.4 -5657.3 
-5758.4 -5584.6 -5622.8 -5857.4 -5525.9 -5356 -5824.6 -5603.6 -5956.7 
-6100 -6374.2 -6256.5 -5712.5 -5979.1 -6440.5 -6325.4 -6375.6 -6285.6 
-5637.5 -5761.9 -5583 -5579.4 -6377.9 -6308.4 -6175.7 -5893 -6178 
-5990.1 -6293.9 -6267.2 -6269 -6204.9 -6302.6 -6164.6 -6376.6 -6129.4 
-6458.2 -6294.4 -6406.6 -6288.4 -6369.5 -6237.5 -6380.4 -6251.7 -6324.8 
-6295.8 -6309.4 -6279.6 -6300.8 -6248.6 -6298.1 -6249.1 -6285.6 -6266.3 
-6347.8 -6159.8 -6272.3 -6136.8 -6391.9 -6265.3 -6413.9 -6249.9 -6432.6 
-6306.6 -6427.7 -6305.8 -6429.1 -6318.2 -6439.5 -6282.5 -6468.6 -6335.7 
-6479.5 -6336.5 -6500.3 -6350.3 -6487.7 -6334.2 -6485.6 -6349.8 -6438.9 
-6320.7 -6430.8 -6312.9 -6411.5 -6321.7 -6441.4 -6294.3 -5651.3 -5542.3 
-6043.7 -5819.5 -6569 -6289.1 -7027.2 -6788.6 -7022.3 -7099.7 -6792.4 
-6896.9 -6429.8 -6577.1 -5894.7 -6154.3 -5504.6 -5629.1 -5656.8 -5563.3 
-6022.1 -5858.4 -6467.7 -6233 -6904.6 -6714.9 -7097.3 -7066.6 -6940.2 
-6977.9 -6644.2 -6832.8 -5550.7 -5545 -6180.8 -5860.9 -6545.1 -6399.9 
-6810.2 -6680.2 -6995.5 -6918.9 -7043 -7123.2 -6536.8 -6815.3 -6068 
-6332.7 -5688.6 -5897.4 -5389.2 -5576.5 -5964.9 -5612.7 -6434.4 -6188.4 
-6772.5 -6622.4 -6984 -6851.7 -7110 -7079.2 -6690.6 -6936.9 -6331.7 
-6256.2 -6439.5 -6319.3 -6309.1 -6197.2 -6374.8 -6272.2 -6290.2 -6171.9 
-6404.4 -6279.5 -6284.1 -6281.2 -6402.1 -6285.3 -6438 -6424 -6296.3 
-6212.9 -5831.2 -6011.3 -5992 -6151.8 -6105.7 -5999.2 -5773.5 -6064.2 
-5840.8 -5988.3 -5567.5 -5932.6 -5624.1 -5837.5 -5525.8 -5505.6 -5752.4 
-5520.5 -5469.6 -5680.3 -5414.9 -5997.5 -5804.8 -6066.4 -5961.3 -5979 
-5820.1 -6060.5 -5907.2 -5990.7 -5918 -6049 -5910.5 -6071.7 -5982 
-6069.3 -5915.3 -6026.9 -5970.2 -6012.7 -5912.7 -6039.5 -5931.5 -6000.6 
-5912.9 -6028.4 -5925.1 -5991.8 -5899.3 -6059.7 -5957 -6077.5 -5971.3 
-6130.3 -5991.2 -6096.4 -5982.3 -6113.9 -6049 -6071.6 -6028.3 -6056.3 
-5958 -5882.3 -5766.6 -5687.3 -5623.6 -5954.6 -5718 -5832.2 -5772.9 
-5974.5 -5704 -5902.5 -5762.2 -5896.8 -5762.5 -5962.6 -5746.3 -5972.2 
-5680.8 -5968.9 -5705.4 -5833.6 -5736.4 -5806 -5522.4 -5767.6 -5583.4 
-5862 -5702.6 -5984.6 -5800.8 -5979 -5864.9 -5928.6 -5863.5 -5930.3 
-5830 -5505.4 -5512.5 -5905.9 -5716.7 -6247.5 -6104.1 -6736.3 -6506.6 
-7112 -6979.8 -7009.3 -7111.6 -6740 -6918.5 -6368.5 -6591.1 -5716.2 
-6126 -5534.7 -5560.5 -5846.8 -5667.8 -6252.2 -6024.8 -6679.9 -6443.8 
-7043.7 -6913.8 -6917.1 -7043.8 -6812.9 -6882 -5506.8 -5716.3 -5629.6 
-5376 -6289.8 -5999.7 -6771.2 -6575.1 -6980.1 -6903.4 -7130 -7058.1 
-6800.6 -6997.8 -6381.9 -6576.8 -5972.4 -6136.9 -5688.8 -5751.6 -5477.8 
-5548.2 -6079.2 -5844.4 -6535.2 -6367.9 -6960.4 -6758.9 -7161.7 -7080.9 
-6902.7 -7162.2 -5500.6 -5821.4 -5664.7 -5516.5 -5581.3 -5902.4 -5942.8 
-5787.5 -6454.4 -6201.5 -6648.6 -6623.9 -6406.9 -5901.4 -6186.5 -5706.4 
-5703.6 -5595.1 -5487.8 -5415.5 -5530.4 -5803.2 -5656.4 -5739.3 -5713.5 
-5674.7 -5598 -5696.8 -5620.9 -5671.6 -5603.9 -5726.5 -5616.2 -5672.6 
-5586 -5742.3 -5651.6 -5744.5 -5713.1 -5774.4 -5725.2 -5775.8 -5727.9 
-5823.4 -5771.1 -5814.4 -5755.5 -5730.4 -5667 -5769.9 -5680.9 -5866.3 
-5708.1 -5825.1 -5764.6 -5769.4 -5644.6 -5349.7 -5422.6 -5491.9 -5503.5 
-5582.8 -5482.9 -5448.5 -5556.1 -5383.8 -5472.6 -5404.3 -5539.1 -5426.6 
-5507.2 -5306.7 -5541.8 -5344.2 -5444.6 -5307 -5528 -5409.8 -5397.2 
-5465.1 -5382.8 -5582.3 -5417.7 -5556.1 -5561.1 -5408.6 -5573.5 -5505.1 
-5529.9 -5235.4 -5410 -5683 -5556.5 -6104.8 -5797 -6558.1 -6301.5 
-7009.3 -6790.7 -7052.8 -7154.2 -6878.7 -6921.2 -6540 -6666 -6044.2 
-6283.5 -5472.1 -5793.2 -5608.8 -5448.4 -5992.8 -5777.3 -6412.7 -6164.7 
-6898.6 -6628 -7116.2 -7104.6 -6941.4 -7015.8 -5538.2 -5439.1 -5681.1 
-6101.1 -5855.1 -6529.2 -6348.8 -6828.8 -6680.8 -7018.3 -6947.3 -7018.6 
-7122.6 -6551.7 -6815.5 -6069.8 -6299.7 -5687.1 -5867.5 -5292.3 -5504.9 
-5920.4 -5592.8 -6408.9 -6249.4 -6794.3 -6677.7 -7057.5 -6912.4 -7113.3 
-7103.1 -5731.4 -5689.1 -5516.7 -5485.4 -5728.5 -5527.5 -5496 -5516.4 
-5375.9 -5468.6 -5819.2 -5502.3 -5462 -5605.9 -5679.8 -5562.1 -5594.1 
-6244.2 -6005.8 -6668.3 -6468.1 -6918 -5488.9 -5462.4 -5541.2 -5581.1 
-5686.3 -5476.6 -5549.6 -5544.7 -5469.1 -5572.6 -5572.2 -5547.2 -5581.6 
-5681.9 -5648.6 -5644.5 -5638.4 -5679.5 -5658 -5539.6 -5631.4 -5514.5 
-6809.8 -6655.5 -6283.8 -6559.3 -5663.7 -5416.5 -5577.3 -5470 -5522.3 
-5505.9 -5828.5 -5633.6 -5546.8 -5678.5 -5417.2 -5603.8 -5545.2 -5534.6 
-5474.7 -5560.7 -5650 -5606.5 -5578.7 -5728.2 -5550.7 -5700.6 -5579 
-5646.3 -5540.4 -5593.8 -5544.9 -5641.9 -5550.7 -5570.5 -5535.3 -5585.4 
-5514.2 -5655.2 -5627.9 -5681.2 -5645.1 -5731.4 -5564.7 -5729.8 -6283.2 
-6065.5 -6735.7 -6539.6 -7153.2 -6972.8 -6984.4 -7128.1 -6674 -6842.3 
-6248.2 -6515 -5733.9 -6016.8 -5607.3 -5667.3 -5807.1 -5743.8 -6217 
-6044.2 -6682.4 -6483.1 -7100.3 -6920.2 -6979.6 -7099.9 -6296.7 -5954.8 
-6715.6 -6483.4 -7002.8 -6895.1 -7146.1 -7016.9 -6859.7 -7030.7 -6362.4 
-6587.2 -5963 -6193.9 -5642.3 -5784.5 -5459.4 -5574 -6116.4 -5828.5 
-6589.2 -6351.4 -6848.4 -6696.9 -7096.4 -7006.9 -5473.9 -6139.2 -5664.8 
-5813.6 -6076.8 -5685.7 -5860.7 -5528 -5675.8 -6061.6 -5852.9 -6041.3 
-5912.9 -5885.5 -6079.5 -5871.8 -6442.8 -6306.8 -6838.2 -6683.4 -6973.9 
-6544.1 -6313.7 -6467.5 -6250.8 -6967.3 -6725 -7113.1 -6473.5 -6320 
-5819.2 -5974.4 -5832 -5916.8 -5861.9 -5961 -5815 -5928.9 -5887.4 
-5962.8 -5920.3 -6007.5 -5909 -6013.2 -5904.9 -6041.5 -5905.2 -6051.3 
-5901.3 -6056.2 -5886.9 -6056.7 -5929.1 -6029.6 -5874.3 -6001.9 -5942.4 
-6042.7 -7003.2 -6808.6 -7095.9 -7124.4 -6848.3 -6963.5 -6563.3 -6746 
-6181.8 -6405.2 -5582.2 -5908.3 -5616.3 -5515.2 -5977.8 -5736.9 -6431.3 
-6182.2 -6887.1 -6641.3 -7144.9 -7092.8 -6923.3 -6747.2 -7009.1 -6959.2 
-7033.5 -7138.8 -6572.2 -6813.3 -6187.8 -6391.2 -5719.8 -5916.4 -5537 
-5587.3 -5895.3 -5689.5 -6408.8 -6201.4 -6792 -6587.1 -7053 -6924.5 
-5713.4 -5774.8 -5831.7 -5923 -5687.2 -5895.4 -5848.3 -5919.7 -5916.5 
-6036.6 -5955.8 -6040.9 -5915.9 -6035.7 -5939.1 -6016.4 -5862.9 -6091.2 
-5817.9 -6144.1 -5861.1 -6049.7 -5862 -6053.8 -5858.3 -6384.7 -6162.6 
-6090.7 -6307.7 -6372.7 -6199.8 -6843.4 -6616.5 -6100.1 -6027.8 -6308 
-6738.3 -6587.9 -7140.4 -7068.5 -6183.2 -6261.2 -6957.5 -6881.1 -6141.2 
-6287.9 -6996.6 -7113.4 -7139.7 -6966.9 -6210.2 -6291.7 -6222 -6327.3 
-6203.9 -6354.2 -6196.7 -6335.1 -6205.9 -6328.9 -6218.8 -6326.6 -6248.5 
-6373.1 -6263.4 -6350.7 -6288.7 -6376.8 -6282.7 -6396.1 -6312.6 -6402.3 
-6287.6 -6443.6 -7008.3 -6941.7 -6714.4 -6833.4 -6351.7 -6572.2 -6056 
-5878.6 -6130.3 -5976.5 -6727.5 -6897.7 -6229.7 -6482.3 -5755.4 -6055.7 
-5463.3 -5358.6 -5707.9 -5524.6 -6143.1 -5932.1 -6604.1 -6379.7 -7067 
-6838.7 -6879.8 -7087.4 -6365.6 -6597.4 -5951 -6215.4 -5637 -5804.4 
-5673.4 -5632.2 -6068.4 -5742.1 -6539.4 -6286.5 -6848.7 -6693.9 -7138.4 
-7167.3 -6759.3 -6983.6 -6224.6 -6389.4 -6265.5 -6396.5 -6162.2 -6293.9 
-6164 -6303.6 -6158.6 -6327.4 -6195 -6330.3 -6173 -6381.4 -6340.2 
-6350.5 -6375.6 -6415 -6323.2 -6462.5 -6517 -6579 -6519.2 -6702.8 
-6520 -7113.5 -6985.9 -7145.4 -6356.3 -6556.6 -6419.9 -7023 -6804 
-7092 -7149.8 -6977.6 -6625.2 -6653.3 -6903.7 -6856.3 -6982.5 -7178.3 
-7055.6 -6878.5 -7039 -6575.3 -6805.9 -6394 -6336.2 -6388.5 -6406.5 
-6597.6 -6731.6 -6632.5 -6736.6 -6664.6 -6781.7 -6679.5 -6819.1 -6685.4 
-6751.6 -6693.8 -6764.9 -6686.7 -6773.4 -6718.1 -6776.8 -6598 -6738.9 
-6698.5 -6721.4 -6901.3 -7036.8 -6630.7 -6835.9 -6171.2 -6431.7 -5751.7 
-5927.2 -5656.6 -5578.9 -6055.5 -5871.8 -6436.5 -6245.1 -6885.1 -6657.3 
-7108 -7101.5 -6649.1 -6914.8 -6146.6 -6423.7 -5718.1 -5908.5 -5348.1 
-5495.5 -5821.1 -5577.3 -6370 -6161.8 -6750.4 -6619.1 -6600.2 -6693.9 
-6604.4 -6713.9 -6653.9 -6736.1 -6645.3 -6791.5 -6654.6 -6783 -6670.9 
-6806.7 -6627.9 -6786.3 -6623.6 -6779.7 -6622.6 -6769.7 -6675.2 -6778.2 
-6633.5 -6776.3 -6949.3 -7095.9 -7033.9 -7167.2 -6841.2 -6645.3 -6766.5 
-7134.7 -6999.9 -6748 -6524.4 -6629.2 -6777.3 -6768.1 -6930 -6894.8 
-7027 -7094.4 -6840.4 -6870 -6970.8 -7019.5 -7123.4 -6976.6 -7081.1 
-6875.7 -6917.1 -6871.9 -6954.8 -6888.3 -6979 -6836.2 -6893.8 -6832 
-6906.3 -6843.6 -6921.5 -6852.8 -6918.8 -6938.6 -6938.2 -6931.2 -6962.7 
-6684.9 -6907.8 -7003.3 -7070 -6975 -7098.9 -6981.1 -7099.3 -7010.8 
-7110.6 -7043.9 -7138.1 -7037 -7161.2 -7048.8 -7151.6 -7075.5 -7162 
-7032.9 -7112.2 -7030.8 -7145.1 -6405.8 -6583.2 -5975.5 -6192.2 -5329 
-5460.7 -5759.6 -5532.3 -6143.4 -5929.6 -6558.5 -6301.2 -6876 -7043.7 
-7126.3 -6404.2 -6603.7 -6001.4 -6190 -5624.8 -5783.6 -5509.2 -5541.4 
-6041.2 -5701 -6596.2 -6224.5 -7006 -6865.8 -7106.3 -6971.1 -7082.5 
-7082.8 -6968.1 -6912.4 -6985.1 -7096.2 -6959.2 -7095.8 -6539.7 -6716.2 
-6134.5 -6309 -6944.4 -7024.2 -7140.3 -7057.8 -7084.6 -7077 -5835.5 
-5916.6 -7101.1 -7007.7 -7046.1 -6958 -7046.6 -7112.9 -6810.1 -6997.8 
-7098.5 -6861.2 -7015.5 -6742.2 -7074.1 -6978.7 -7119.1 -7019.2 -7134.6 
-7065.9 -7126.3 -7071.3 -7158.2 -7085.6 -7148.8 -7089.5 -5521.6 -5637.1 
-5892.3 -5523.2 -6450.7 -6170.4 -7020.4 -7078.9 -7040.5 -7108.8 -7020.4 
-7108.5 -6977.5 -7072 -6976.1 -7052.2 -6987.7 -7064.1 -6613.7 -6809.3 
-6057.4 -6366.4 -5436.1 -5751.2 -5594.9 -5507.8 -5928.9 -5763 -6305.6 
-6128.4 -7056.2 -6821.7 -6894.7 -6945.4 -7074.1 -7041.1 -7122.3 -6709.3 
-6850.7 -6593.1 -6911.4 -6822.8 -6933.6 -6858.4 -6897 -6842.3 -6937.8 
-6813.5 -7122.9 -7026.3 -6589.6 -6741.8 -6231.8 -6320.2 -5985.7 -6817.5 
-7004.1 -6570.4 -6522.8 -6612.3 -6928.6 -6840.1 -7113.8 -7012.1 -6964.3 
-6902.3 -7177.4 -7044.6 -7153.3 -7080.6 -7181.3 -7068.3 -7141.8 -7085.8 
-7136.9 -7055 -6066.1 -6203.2 -5534.7 -5651.7 -5762.5 -5629.7 -6137.4 
-5891.3 -5655.5 -5824.9 -5508.1 -5542 -6037.1 -5736.4 -6611.8 -6750.4 
-6704.1 -6574.6 -6120.1 -6335.6 -7099.5 -6987.6 -7033.3 -6446.6 -6587.1 
-6234.7 -6189.7 -6348.9 -5853.7 -5992.4 -6773.7 -6596.6 -6666.1 -6806 
-6643 -5611 -5769.7 -6800.2 -6635.2 -6824.8 -6661.2 -5550.8 -5710.1 
-5558.9 -5503.1 -6797 -6695.8 -6835.1 -6694.8 -6921 -6852.7 -6857.6 
-5880.5 -5707.8 -6570.9 -6352.7 -5685.1 -5504.6 -6699.3 -6529.7 -6553.6 
-6655.3 -6586.7 -6787.3 -6836.7 -6721.7 -6375.5 -6544.6 -6302.2 -5944.6 
-6204.4 -6324.7 -6077.2 -6263.7 -6265.5 -6349.8 -5899.9 -5972.6 -5687.2 
-6579.5 -6658.2 -6388 -6731.3 -6576.9 -6386.7 -6277.8 -6401.9 -6275.3 
-6446 -6317.6 -6449.6 -6315.4 -5857.3 -6211.3 -5631.2 -5676.5 -5669.4 
-5619.7 -5527.1 -5582.7 -6368.8 -6425.9 -6423.7 -6591.8 -5884.3 -6011.6 
-5653.8 -6140.2 -6128.5 -5876.2 -5619.5 -6200.8 -6376.5 -5990.3 -6122.1 
-5780.1 -6348.7 -6239.6 -6234.8 -6034.1 -5917.4 -6068.1 -5949.9 -5610.4 
-5865.4 -5507.8 -5480.4 -6032 -5858.4 -5859.1 -5681.5 -5684.3 -5605.3 
-5667.2 -5737.5 -5557.2 -5608.1 -5655 -5536.8 -5835.2 -5975.2 -5777.7 
-5878.9 -5712.6 -5584.9 -5560.8 -6976.2 -6919.5 -7063 -7367.8 -7785.7 
-7715.2 -7767.2 -7932.3 -8037 -8003.9 -8031.1 -8127.1 -8163 -8144.9 
-8165 -8224.8 -8235.2 -8229.4 -8245.4 -8281.3 -8292.3 -8289 -8303.8 
-8323.4 -8335.4 -8336.2 -8338.9 -8367.2 -8371.2 -8358 -8365.9 -8397.7 
-8365.2 -8355.3 -8353.7 -8355.5 -8143.9 -8174.7 -8082.6 -7989.4 -7922.1 
-8394.4 -8501 -7953.6 -8416.6 -8728.9 -7931.8 -8450 -8691.6 -8019.1 
-8436.9 -8788.3 -8080.9 -8446.1 -8843.7 -8116.2 -8443 -8917.5 -8209.2 
-8438.4 -8942.3 -8137.3 -8452.7 -8914 -8055.4 -8432.8 -8945.8 -7975.2 
-8442.3 -8812 -8000.7 -8421.5 -8739.1 -7959.8 -8426.2 -8708.8 -7997.2 
-8428.5 -8747.1 -8077.4 -8436.6 -8797.8 -8089.3 -8454.6 -8847.6 -8196.5 
-8439.8 -8907.9 -8169.6 -8456.9 -8926 -8062.6 -8431.7 -8929.8 -7953.3 
-8431.7 -8865.8 -7962.9 -8403.6 -8568.2 -5406.6 -2273.3 2183.8 5890.6 
-7625 -7284.6 -6878.1 -6542.8 -7990.9 -7892 -7852.5 -7896.4 -8152.5 
-8114.2 -8110.5 -8153.2 -8245.3 -8237 -8245.4 -8272.1 -8311.9 -8317.2 
-8327.3 -8345.6 -8375.9 -8368.6 -8377.6 -8393.3 -8416.2 -8395.3 -8418.6 
-8424.3 -8383.7 -8397.7 -8398.4 -8440.2 -7935.5 -8019.4 -8091.7 -8163.1 
-8197.7 -8359.2 -8302.9 -8264.1 -8402 -8396.3 -8269.3 -8444.2 -8415.2 
-8258.3 -8434.4 -8381.1 -8343.2 -8470.1 -8466 -8326.9 -8480.4 -8481.5 
-8307.5 -8497.8 -8492.8 -8494.4 -8534 -8473.9 -4456.8 -3670.9 -3624.3 
-4358.6 -7613.9 -7441.2 -7437.6 -7597.6 -7987.4 -7910.4 -7909.4 -7977.1 
-8139.8 -8088.4 -8087.7 -8114.8 -8207.6 -8170.3 -8171 -8177.5 -8240 
-8221.8 -8219.8 -8215.8 -8262 -8248.5 -8245.5 -8244.8 -8311.2 -8297.2 
-8295.8 -8301.2 -8332.3 -8325.3 -8325.8 -8339.8 -8068.9 -8057.7 -8061.3 
-8093.3 24585 25618 25498 24159 -660.63 41.891 -87.591 -1044.7 
-8000 -7914.2 -7922.8 -8020.3 -8239.6 -8205.2 -8205.5 -8240.6 -8311.7 
-8322.7 -8325.7 -8326.7 -8308 -8304.9 -8310.4 -8322.3 -8376.5 -8371.8 
-8374.7 -8395.3 -8438.8 -8431.9 -8434.7 -8458.8 -8471.7 -8461.1 -8462.7 
-8470.9 -8368.6 -8342.7 -8345.1 -8349.1 -8098.6 -8346.1 -8405.5 -8101.8 
-8379.9 -8506.1 -8106 -8398.6 -8533 -8109.9 -8405 -8537.5 -8109.8 