# vtk DataFile Version 4.2
vtk output
ASCII
DATASET UNSTRUCTURED_GRID
POINTS 8741 float
-50.9877 -42.4748 32.7169 -50.988 -30.4748 32.7102 -50.9896 30.5252 32.6762 
-50.9899 42.5252 32.6695 -46.9942 46.5252 32.484 -35.0068 46.5252 31.9343 
25.9292 46.5252 29.1397 37.9166 46.5252 28.5899 41.9125 42.5252 28.4089 
41.9128 30.5252 28.4156 41.9143 -30.4748 28.4496 41.9146 -42.4748 28.4563 
37.9189 -46.4748 28.6418 25.9315 -46.4748 29.1916 -46.9918 -46.4748 32.5359 
-35.0044 -46.4748 31.9861 25.4939 46.5199 19.6497 24.5319 46.5082 -1.32828 
36.5193 46.5082 -1.87803 37.4813 46.5199 19.0999 -35.442 46.5199 22.4442 
-47.4294 46.5199 22.994 -48.3915 46.5082 2.01604 -36.404 46.5082 1.46629 
41.4773 42.5199 18.9189 -51.4251 42.5199 23.1795 40.5152 42.5082 -2.05905 
40.5155 30.5082 -2.05235 41.4776 30.5199 18.9256 -51.4248 30.5199 23.1862 
-52.3868 30.5082 2.20821 -52.3871 42.5082 2.20152 41.4791 -30.4801 18.9596 
-51.4232 -30.4801 23.2202 40.5171 -30.4918 -2.01832 40.5174 -42.4918 -2.01163 
41.4794 -42.4801 18.9663 -51.4229 -42.4801 23.2269 -52.385 -42.4918 2.24894 
-52.3853 -30.4918 2.24224 37.4837 -46.48 19.1518 -47.427 -46.48 23.0459 
36.5217 -46.4918 -1.82615 24.5343 -46.4918 -1.2764 25.4963 -46.48 19.7015 
-35.4396 -46.48 22.4961 -36.4017 -46.4918 1.51817 -48.3891 -46.4918 2.06792 
-35.4401 -26.4801 22.485 -31.4442 -30.4801 22.3039 -31.4439 -42.4801 22.3106 
21.5004 -42.4801 19.8826 21.5001 -30.4801 19.8759 25.4958 -26.4801 19.6904 
37.4832 -26.4801 19.1406 37.4819 26.5199 19.1111 25.4945 26.5199 19.6608 
21.4986 30.5199 19.8418 21.4982 42.5199 19.8351 -31.4461 42.5199 22.2632 
-31.4458 30.5199 22.2699 -35.4415 26.5199 22.4554 -47.4289 26.5199 23.0051 
-47.4275 -26.4801 23.0347 47.6277 30.4853 -43.4216 47.6273 46.4853 -43.4305 
38.6365 55.4853 -43.0232 22.6533 55.4853 -42.2902 22.6536 46.4853 -42.2852 
18.6579 42.4853 -42.0997 18.6579 41.6853 -42.0993 -7.81428 41.6853 -40.8853 
-7.81401 31.2853 -40.8795 18.6582 31.2853 -42.0935 18.6582 30.4853 -42.093 
22.6541 26.4853 -42.2741 23.4533 26.4853 -42.3107 23.4539 -0.01469 -42.2959 
33.843 -0.01469 -42.7724 33.8423 26.4853 -42.7872 38.6372 30.4853 -43.0093 
34.6415 26.4853 -42.8238 35.4656 46.4953 -24.8539 23.4782 46.4953 -24.3041 
23.478 55.4953 -24.3091 39.4612 55.4953 -25.0421 48.452 46.4953 -25.4494 
48.4524 30.4953 -25.4405 39.4615 42.4953 -25.0349 39.4618 30.4953 -25.0282 
24.5319 46.5082 -1.32828 20.5362 42.5082 -1.1428 20.5365 30.5082 -1.1361 
24.5324 26.5082 -1.31712 36.5198 26.5082 -1.86687 40.5155 30.5082 -2.05235 
36.5193 46.5082 -1.87803 40.5152 42.5082 -2.05905 19.2079 31.292 -30.1061 
19.2076 41.692 -30.1119 -7.26426 31.292 -28.892 -7.26452 41.692 -28.8979 
34.3921 26.492 -30.7998 24.003 26.492 -30.3233 34.3928 -0.00799 -30.785 
24.0037 -0.00799 -30.3085 20.5362 42.5082 -1.1428 20.5365 30.5082 -1.1361 
24.5324 26.5082 -1.31712 36.5198 26.5082 -1.86687 -49.4701 26.4853 -38.9664 
-49.4694 -0.01469 -38.9516 -39.0803 -0.01469 -39.4281 -39.081 26.4853 -39.4428 
-38.2819 26.4853 -39.4795 -34.2862 30.4853 -39.665 -34.2862 31.2853 -39.6654 
-7.81401 31.2853 -40.8795 -7.81428 41.6853 -40.8853 -34.2864 41.6853 -39.6712 
-34.2865 42.4853 -39.6717 -38.2824 46.4853 -39.4907 -38.2826 55.4853 -39.4957 
-54.2658 55.4853 -38.7627 -63.2561 46.4853 -38.3453 -63.2557 30.4853 -38.3364 
-54.2652 30.4853 -38.7487 -50.2693 26.4853 -38.9297 -62.4311 30.4953 -20.3553 
-62.4315 46.4953 -20.3642 -53.4412 55.4953 -20.7816 -37.458 55.4953 -21.5146 
-37.4577 46.4953 -21.5096 -49.4451 46.4953 -20.9598 -53.4408 42.4953 -20.7743 
-53.4405 30.4953 -20.7676 -36.404 46.5082 1.46629 -32.4081 42.5082 1.28527 
-32.4078 30.5082 1.29196 -36.4035 26.5082 1.47744 -48.3909 26.5082 2.02719 
-52.3868 30.5082 2.20821 -48.3915 46.5082 2.01604 -52.3871 42.5082 2.20152 
-33.7364 31.292 -27.678 -33.7367 41.692 -27.6838 -7.26452 41.692 -28.8979 
-7.26426 31.292 -28.892 -48.9203 26.492 -26.979 -38.5313 26.492 -27.4554 
-38.5306 -0.00799 -27.4407 -48.9197 -0.00799 -26.9642 -32.4081 42.5082 1.28527 
-32.4078 30.5082 1.29196 -36.4035 26.5082 1.47744 -48.3909 26.5082 2.02719 
33.8437 -26.5147 -42.7576 33.843 -0.01469 -42.7724 23.4539 -0.01469 -42.2959 
23.4546 -26.5147 -42.2811 22.6554 -26.5147 -42.2445 18.6597 -30.5147 -42.059 
18.6598 -31.3147 -42.0586 -7.81241 -31.3147 -40.8445 -7.81214 -41.7147 -40.8387 
18.66 -41.7147 -42.0528 18.66 -42.5147 -42.0523 22.656 -46.5147 -42.2333 
22.6562 -55.5147 -42.2283 38.6394 -55.5147 -42.9613 47.6297 -46.5147 -43.3787 
47.6293 -30.5147 -43.3876 38.6387 -30.5147 -42.9753 34.6428 -26.5147 -42.7942 
48.4539 -30.5046 -25.4065 48.4543 -46.5046 -25.3976 39.464 -55.5046 -24.9802 
23.4808 -55.5046 -24.2472 23.4806 -46.5046 -24.2522 35.468 -46.5046 -24.802 
39.4637 -42.5046 -24.9875 39.4634 -30.5046 -24.9942 24.5343 -46.4918 -1.2764 
20.5384 -42.4918 -1.09538 20.5381 -30.4918 -1.10207 24.5338 -26.4918 -1.28755 
36.5212 -26.4918 -1.8373 40.5171 -30.4918 -2.01832 36.5217 -46.4918 -1.82615 
40.5174 -42.4918 -2.01163 19.2095 -31.308 -30.0712 19.2098 -41.708 -30.0654 
-7.26239 -41.708 -28.8513 -7.26266 -31.308 -28.8571 34.3934 -26.508 -30.7702 
24.0044 -26.508 -30.2937 24.0037 -0.00799 -30.3085 34.3928 -0.00799 -30.785 
20.5384 -42.4918 -1.09538 20.5381 -30.4918 -1.10207 24.5338 -26.4918 -1.28755 
36.5212 -26.4918 -1.8373 -48.3896 -26.4918 2.05676 -36.4022 -26.4918 1.50701 
-32.4063 -30.4918 1.32599 -32.406 -42.4918 1.33269 -38.2805 -26.5147 -39.4499 
-50.2679 -26.5147 -38.9002 -49.4687 -26.5147 -38.9368 -48.919 -26.508 -26.9494 
-38.5299 -26.508 -27.4259 -39.0797 -26.5147 -39.4133 -34.2843 -42.5147 -39.6242 
-34.2846 -30.5147 -39.6309 -34.2846 -31.3147 -39.6305 -33.7348 -31.308 -27.6431 
-33.7346 -41.708 -27.6373 -34.2843 -41.7147 -39.6247 -53.4387 -42.5046 -20.7269 
-53.439 -30.5046 -20.7336 -49.4428 -46.5046 -20.9079 -37.4554 -46.5046 -21.4577 
-48.9197 -0.00799 -26.9642 -38.5306 -0.00799 -27.4407 -39.0803 -0.01469 -39.4281 
-49.4694 -0.01469 -38.9516 -7.26266 -31.308 -28.8571 -7.26239 -41.708 -28.8513 
-7.81241 -31.3147 -40.8445 -7.81214 -41.7147 -40.8387 -37.4551 -55.5046 -21.4527 
-53.4383 -55.5046 -20.7197 -62.4291 -46.5046 -20.3123 -62.4295 -30.5046 -20.3213 
-63.2542 -30.5147 -38.3024 -54.2636 -30.5147 -38.7147 -63.2537 -46.5147 -38.2934 
-38.28 -46.5147 -39.4388 -38.2798 -55.5147 -39.4338 -54.263 -55.5147 -38.7007 
-48.5209 -46.1703 32.6059 -49.8173 -45.3032 32.6648 -50.6835 -44.0055 32.7038 
-50.9878 -39.4748 32.7152 -50.9879 -36.4748 32.7136 -50.9879 -33.4748 32.7119 
-50.9881 -27.4247 32.7085 -50.9882 -24.3748 32.7068 -50.9882 -21.3248 32.7051 
-50.9883 -18.2747 32.7034 -50.9884 -15.2247 32.7017 -50.9885 -12.1748 32.7 
-50.9885 -9.12476 32.6983 -50.9886 -6.07476 32.6966 -50.9887 -3.02476 32.6949 
-50.9888 0.02524 32.6932 -50.9889 3.07524 32.6915 -50.9889 6.12524 32.6898 
-50.989 9.17524 32.6881 -50.9891 12.2252 32.6864 -50.9892 15.2752 32.6847 
-50.9893 18.3252 32.683 -50.9893 21.3752 32.6813 -50.9894 24.4252 32.6796 
-50.9895 27.4752 32.6779 -50.9896 33.5252 32.6745 -50.9897 36.5252 32.6728 
-50.9898 39.5252 32.6712 -50.6857 44.0559 32.6547 -49.8196 45.3536 32.6142 
-48.5233 46.2207 32.5543 -43.9973 46.5252 32.3466 -41.0005 46.5252 32.2091 
-38.0036 46.5252 32.0717 -31.96 46.5252 31.7945 -28.9132 46.5252 31.6548 
-25.8664 46.5252 31.5151 -22.8196 46.5252 31.3753 -19.7728 46.5252 31.2356 
-16.726 46.5252 31.0959 -13.6792 46.5252 30.9562 -10.6324 46.5252 30.8164 
-7.5856 46.5252 30.6767 -4.5388 46.5252 30.537 -1.492 46.5252 30.3972 
1.55479 46.5252 30.2575 4.60159 46.5252 30.1178 7.64839 46.5252 29.9781 
10.6952 46.5252 29.8383 13.742 46.5252 29.6986 16.7888 46.5252 29.5589 
19.8356 46.5252 29.4191 22.8824 46.5252 29.2794 28.926 46.5252 29.0023 
31.9229 46.5252 28.8648 34.9197 46.5252 28.7274 39.4457 46.2207 28.52 
40.7421 45.3536 28.461 41.6083 44.0559 28.422 41.9126 39.5252 28.4106 
41.9126 36.5252 28.4123 41.9127 33.5252 28.4139 41.9129 27.4752 28.4173 
41.9129 24.4252 28.419 41.913 21.3752 28.4207 41.9131 18.3252 28.4224 
41.9132 15.2752 28.4241 41.9132 12.2252 28.4258 41.9133 9.17524 28.4275 
41.9134 6.12524 28.4292 41.9135 3.07524 28.4309 41.9136 0.02524 28.4326 
41.9136 -3.02476 28.4343 41.9137 -6.07476 28.436 41.9138 -9.12476 28.4377 
41.9139 -12.1748 28.4394 41.914 -15.2247 28.4411 41.914 -18.2747 28.4428 
41.9141 -21.3248 28.4445 41.9142 -24.3748 28.4463 41.9143 -27.4247 28.448 
41.9144 -33.4748 28.4513 41.9145 -36.4748 28.453 41.9146 -39.4748 28.4547 
41.6105 -44.0055 28.4711 40.7444 -45.3032 28.5116 39.4481 -46.1703 28.5715 
34.9221 -46.4748 28.7793 31.9252 -46.4748 28.9167 28.9284 -46.4748 29.0541 
22.8848 -46.4748 29.3313 19.838 -46.4748 29.471 16.7912 -46.4748 29.6108 
13.7444 -46.4748 29.7505 10.6976 -46.4748 29.8902 7.65076 -46.4748 30.0299 
4.60397 -46.4748 30.1697 1.55717 -46.4748 30.3094 -1.48962 -46.4748 30.4491 
-4.53642 -46.4748 30.5889 -7.58322 -46.4748 30.7286 -10.63 -46.4748 30.8683 
-13.6768 -46.4748 31.008 -16.7236 -46.4748 31.1478 -19.7704 -46.4748 31.2875 
-22.8172 -46.4748 31.4272 -25.864 -46.4748 31.567 -28.9108 -46.4748 31.7067 
-31.9576 -46.4748 31.8464 -38.0012 -46.4748 32.1236 -40.9981 -46.4748 32.261 
-43.9949 -46.4748 32.3984 25.639 46.5217 22.813 25.7841 46.5235 25.9764 
24.6693 46.5099 1.66857 24.8068 46.5115 4.66542 24.9442 46.5132 7.66227 
25.0816 46.5149 10.6591 25.2191 46.5166 13.656 25.3565 46.5182 16.6528 
27.5287 46.5082 -1.46572 30.5256 46.5082 -1.60316 33.5224 46.5082 -1.74059 
36.6567 46.5099 1.11882 36.7942 46.5115 4.11567 36.9316 46.5132 7.11252 
37.069 46.5149 10.1094 37.2065 46.5166 13.1062 37.3439 46.5182 16.1031 
37.6264 46.5217 22.2633 37.7715 46.5235 25.4266 -35.2969 46.5217 25.6076 
-35.1519 46.5235 28.7709 22.4471 46.5199 19.7894 19.4004 46.5199 19.9291 
16.3536 46.5199 20.0688 13.3068 46.5199 20.2086 10.26 46.5199 20.3483 
7.21317 46.5199 20.488 4.16637 46.5199 20.6278 1.11957 46.5199 20.7675 
-1.92722 46.5199 20.9072 -4.97402 46.5199 21.0469 -8.02082 46.5199 21.1867 
-11.0676 46.5199 21.3264 -14.1144 46.5199 21.4661 -17.1612 46.5199 21.6059 
-20.208 46.5199 21.7456 -23.2548 46.5199 21.8853 -26.3016 46.5199 22.025 
[...]
CELL_DATA 12638
SCALARS cell_scalars float
LOOKUP_TABLE default
-8437.6 -8151.2 -8431.9 -8558.1 -8174.4 -8605 -8696 -8187.6 -8436.1 
-8058.7 -8268 -7701.2 -7922.6 -7249.2 -7542.8 -6897.3 -7248.4 -6504.9 
-7093.9 -6909.6 -7623 -7444.1 -7988.1 -7782.8 -8276.9 -8013.6 -8336.9 
-7850.9 -8028.3 -7418 -7627.9 -6952.8 -7198.8 -6545.2 -6909.7 -6337.6 
-7039.5 -6999.6 -7581.4 -7476.1 -7978.5 -7801.5 -8255.2 -8014.3 -8191.7 
-7618.5 -7817.5 -7164.2 -7385.1 -6675.4 -7092.8 -6320.4 -6790.4 -6605.9 
-7121.5 -7130.7 -7629.8 -7508.4 -8055 -7851.6 -8203.3 -7775.8 -8035 
-7636.2 -8140.3 -8031.7 -7560 -7930.5 -7711.4 -7166.3 -7551.9 -7139.8 
-7523.9 -7083.2 -7505.8 -7077.3 -7457 -7052.8 -7501.4 -7064.8 -7461.1 
-6996.7 -7457.5 -7049.8 -7472.9 -7042.5 -7446.7 -7026.1 -7479 -7046.6 
-7473.1 -7015.1 -7426.6 -7035.2 -7455.8 -7003.6 -7447.4 -7019.9 -7417.8 
-6998.9 -7440.8 -6986 -7424.7 -6987.2 -7405.4 -6985.9 -7411.5 -6977.2 
-7386.7 -6961.6 -7363.9 -6937 -7375.3 -6925.2 -7397.1 -6938 -7351.2 
-6909.8 -7338.3 -6893.6 -7245.9 -6879.8 -7341.4 -6941.2 -7253.4 -6906.7 
-7417.5 -7738.3 -7400.3 -7939.8 -8028.8 -7484.7 -7928.1 -7691.2 -8153.9 
-7881.6 -8123.8 -7624.3 -7785.1 -7229.4 -7445.3 -6729.2 -6834.6 -6306.6 
-6987.8 -6585.3 -7184 -7007.4 -7660.6 -7483.5 -8056.6 -7876.4 -8277.5 
-7889.8 -8040.5 -7577.7 -7734.4 -7194.8 -7167.1 -6602.6 -6768.8 -6446.3 
-7060.5 -6810.8 -7434.1 -7267 -7907.9 -7717.1 -8240.3 -8030.9 -8308.9 
-7881.8 -8097.1 -7556.1 -7782.4 -7084.2 -7266.8 -6458.2 -7162.8 -6736.5 
-7294.1 -7054.9 -7738.4 -7494.8 -8127.3 -7955.5 -8427.7 -8214.6 -8556.1 
-8456.9 -8139.7 -8437.1 -8642.3 -8144.3 -8584.7 -7969.2 -8489.7 -8007.2 
-8510.4 -7972.9 -8478 -7939.7 -8449.6 -7924.2 -8415.4 -7936.5 -8440 
-7981.4 -8503.9 -7953.2 -8514.3 -7976.2 -8540.6 -7957.9 -8497.5 -7950.3 
-8534 -7951.3 -8515.2 -7955.2 -8499.8 -7951 -8525.2 -7952.7 -8514.9 
-7946.5 -8516.8 -7947.7 -8508.8 -7935.3 -8510.8 -7930.4 -8489.7 -7950.4 
-8495.2 -7955.7 -8394.7 -7885.2 -8400.2 -7897 -8403.6 -7879.1 -8430.3 
-7892.4 -8449.1 -7884.5 -8478.1 -7905.6 -7859.3 -7853.3 -7815.6 -7893.8 
-7734.1 -7749.6 -7018.6 -7129.6 -7231.9 -6928.8 -7002.6 -7080.6 -6941.7 
-6787.2 -7401.5 -7142.4 -7673.7 -7781.7 -7214 -7417.3 -6750.6 -6921.9 
-6437.1 -6519.2 -6199 -6276.7 -6797 -6499.7 -7227.9 -7035.7 -7573.7 
-7380.3 -7738.4 -7622.9 -7502.6 -7663.8 -7015.7 -7238.2 -6591.2 -6791.7 
-6254.7 -6402.5 -6453.3 -6257.6 -6962.3 -6628.4 -7330.1 -7112.5 -7573.4 
-7443.1 -7670.9 -7680.2 -7212.7 -7418.1 -6720.1 -6933.4 -6347.2 -6481.5 
-6147.5 -6199.6 -6516.7 -6281.9 -7022.6 -6792 -7311.1 -7211.8 -7621.1 
-7449.2 -7783.8 -7800.2 -7715.5 -7688.6 -7709.3 -7735.4 -7724.2 -7721.7 
-7727 -7712.1 -7753.7 -7685.3 -7715.3 -7718.1 -7724.6 -7724.3 -7727.2 
-7731.7 -7775.7 -7734.6 -7769.8 -7723.2 -7759.3 -7707.4 -7765.2 -7707.6 
-7746.9 -7700.5 -7723.7 -7682.7 -7719.7 -7670.3 -7711.2 -7665.6 -7690.4 
-7672.2 -7669.1 -7673.7 -7674.1 -7655.6 -7681.3 -7687.9 -7692 -7637.5 
-7658.9 -7660.1 -7664.2 -7616.3 -7629 -7699.2 -7664 -7679.1 -7672.1 
-6908.6 -7011.3 -6946.5 -7000.2 -6930.1 -7015.8 -7000.4 -7039.7 -6940.9 
-7070.3 -6973.4 -7073.5 -6952.8 -7045 -6950.6 -7044.1 -6946.1 -7038.2 
-6937.9 -7033.9 -6941.9 -7029.4 -6931.3 -7020.7 -6911.7 -7031.6 -6913.5 
-7018.8 -6911.2 -7014.8 -6918.9 -7002.4 -6911.8 -6985.7 -6905.5 -7006.9 
-6880.6 -7008.8 -6868.3 -7004.3 -6883.1 -6989.3 -6878.3 -6980.5 -6850 
-6958.7 -6820 -6951.7 -6813 -6886 -6773.4 -6903.2 -7517 -7298.4 
-7512.5 -7564 -7213.3 -7272.2 -6887.2 -7008.5 -6310 -6531.2 -6115.3 
-6158 -6460.4 -6295.2 -6897.8 -6663.7 -7364.7 -7094.8 -7713.5 -7563.9 
-7508.6 -7591.4 -7219.6 -7350.8 -6768 -7020 -6141.3 -6518.6 -6350.6 
-6192.7 -6708.8 -6483 -7164.2 -6902.1 -7624.4 -7382.5 -7727.6 -7712 
-7456.6 -7574.9 -7116.1 -7259.4 -6563.5 -6867.3 -6266.4 -6290.1 -6477.2 
-6308.9 -6893.6 -6635 -7354.4 -7111.1 -7768 -7525.5 -7207.6 -7767.9 
-6864.1 -7062.3 -7743 -7520.6 -7690.2 -7735.4 -7684.2 -7297.3 -7478 
-7179.6 -7299.7 -7542.9 -7487.2 -6819.6 -7039.9 -7305 -7421.8 -7665.6 
-7640.3 -6414.6 -6612.3 -7018 -7207.8 -6184.4 -6285.5 -6591.5 -6284.3 
-7103 -6799.1 -7429.8 -7229.3 -7607.9 -7512.3 -7646.5 -7703.2 -7198.9 
-7403.3 -6741.1 -6952.6 -6379.2 -6497.4 -6264.6 -6182.9 -6690.8 -6381.9 
-7136.1 -6939.4 -7416.7 -7288.9 -7639.9 -7548 -7367 -7553.5 -6864.5 
-7101.2 -6386.3 -6627 -6065 -6207.1 -6233.6 -6006.7 -6816.3 -6559.1 
-7128.1 -6970.5 -6510.3 -6808.4 -6168.8 -6399.6 -6228.1 -6073.1 -6619 
-6358.3 -7064.5 -6793.9 -7508.9 -7283.6 -7575.2 -7634.8 -7333.4 -7429.5 
-6976.9 -7182.1 -6437.9 -6737 -6262.3 -6282.1 -6471.8 -6326 -6882.8 
-6672.6 -7363.1 -7098.8 -7697.2 -7554.1 -7555.2 -7666.4 -7286 -7456 
-6997.6 -7153.9 -6373.7 -6696.4 -6316.4 -6291.9 -6651 -6444.1 -6969.6 
-6786.2 -7386.6 -7219.2 -7465.3 -7191.1 -7712.6 -7652 -7690.7 -7615.7 
-7698.4 -7603 -7727.2 -7640.7 -7720.2 -7634.7 -7713.8 -7613.4 -7712.5 
-7625.3 -7707.7 -7642.5 -7697.5 -7664.2 -7727.3 -7652.8 -7705.5 -7671.6 
-7740.5 -7667.4 -7759.3 -7685.9 -7749.5 -7699 -7742 -7682.5 -7720.7 
-7655.1 -7728.7 -7649.5 -7740 -7655 -7752.7 -7691.2 -7731.5 -7682 
-7740.6 -7662.7 -7674.6 -7679.6 -7668.1 -7609 -7682.4 -7641.5 -7198.1 
-7303.3 -7238.8 -7336.7 -7235.7 -7331.6 -7263.3 -7371.7 -7340.4 -7405.9 
-7315.8 -7488.1 -7334.8 -7479.9 -7331.5 -7478.9 -7322.8 -7476.9 -7328.3 
-7456.4 -7314.3 -7473.1 -7310 -7467 -7314.7 -7462.1 -7295.1 -7450 
-7296.7 -7447.2 -7292.3 -7440.3 -7283.9 -7441.8 -7292.8 -7409.7 -7266.9 
-7392.6 -7246.1 -7373.2 -7146.6 -7333.7 -7140.8 -7269.3 -7168.5 -7289.9 
-7137.2 -7247.6 -7119.8 -7241.7 -7493.9 -7454.6 -7680.7 -7665.9 -7697.9 
-7620.7 -7698.1 -7238.3 -7203.7 -7449.5 -7538.8 -7533.6 -7435.1 -7522.7 
-7513.3 -7540.9 -7209 -7240.4 -7022.6 -7227.7 -7389.7 -7199.9 -6648.7 
-6773.2 -6412.9 -6447.1 -6854.9 -7024.7 -7382.5 -7259.6 -7509.1 -7528.9 
-6255.3 -6313.5 -6432.6 -6597.9 -7651.2 -7675.3 -6760.6 -6457 -7230.8 
-6992.1 -7533 -7377.7 -7738.3 -7654.7 -7368 -7613.7 -6895.6 -7145.9 
-6452.4 -6673 -6162.7 -6294.5 -6513.4 -6121.6 -7019.1 -6767.7 -7371.1 
-7209.4 -7598.2 -7459.1 -7553.4 -7669.2 -7075.6 -7323.1 -6600.9 -6836.8 
-6290.3 -6448.3 -6101.7 -6191 -6579.5 -6266.9 -6998.1 -6790.1 -7253.6 
-7060.8 -6045 -6103.9 -6311.7 -6162.5 -6758 -6527.6 -7232.3 -6998.8 
-7661.1 -7484.3 -7498 -7615.2 -7224.9 -7399.9 -6828.7 -7071.6 -6157.8 
-6611.3 -6222.2 -6073.9 -6598.7 -6376.6 -7057.6 -6803.1 -7539.5 -7278.8 
-7687.8 -7741.8 -7509.5 -7583.5 -7095.9 -7342.9 -6526.3 -6816.3 -6225.4 
-6335.5 -6444.6 -6320.8 -6783.8 -6571.1 -7201.1 -6961.3 -7345.7 -7255.4 
-7416.5 -7235.1 -7352.1 -7224.4 -7341.5 -7217.1 -7349.5 -7236.6 -7371.8 
-7215 -7388.2 -7214.2 -7391.7 -7235.6 -7391.1 -7229.8 -7405.5 -7251.4 
-7419.4 -7248.7 -7404.7 -7279.4 -7407.3 -7277 -7412.8 -7294.9 -7435 
-7313.7 -7467.2 -7324.7 -7470.7 -7378.8 -7433.7 -7339.5 -7472.7 -7317.7 
-7416.5 -7339.8 -7442.8 -7324.1 -7546.4 -7520.6 -7569 -7554.7 -7634.8 
-7600.6 -7616.9 -7605.5 -7601.8 -7600.1 -7622.7 -7598.1 -7612.2 -7571.4 
-7622.6 -7598.8 -7626.8 -7610.6 -7628.4 -7613.7 -7632.7 -7624.2 -7631.4 
-7638.6 -7615.9 -7624.2 -7638.2 -7621.6 -7591.9 -7621.5 -7594.1 -7627.9 
-7580.5 -7654.7 -7523 -7606.8 -7538 -7559.5 -7498 -7588.5 -7441.2 
-7530.1 -7432.2 -7486.6 -7727.7 -7700.1 -7590.3 -7471.4 -7495 -7415.7 
-7448 -7326.4 -7474.4 -7353.5 -6913.3 -7071.8 -7451.2 -7361.3 -7252.9 
-7394 -7418.9 -6789.7 -6982.2 -7023.3 -6408.2 -6611.7 -6212.8 -6238.1 
-6625.6 -6219.3 -6986.5 -7121.4 -6488.2 -6852.7 -6015.3 -6341.4 -6579.1 
-6712.7 -7507.8 -7407.5 -7119.9 -7217.8 -7084.1 -6974.1 -7521.7 -7418.1 
-6284.7 -6436.9 -6710.4 -6996.8 -7008.4 -6919.3 -6981.9 -6758.4 -6222 
-6059.4 -7473.3 -7400.8 -7467.9 -7385 -7448.7 -7369 -7455.9 -7332.9 
-7465.2 -7326.2 -7490.8 -7371.6 -7493.7 -7391.6 -7494.4 -7406 -7493 
-7405.1 -7477.3 -7388.8 -7461 -7393.2 -7455.9 -7377.8 -7431.3 -7408.6 
-7470.8 -7396.4 -7443.3 -7348.9 -7063.6 -6887.7 -7087.8 -6959.7 -7032.3 
-6943.8 -7089.1 -6953.5 -7097.7 -6968.5 -7083.3 -6955.8 -7048.1 -6946.5 
-7030.3 -6920 -7033.7 -6924.9 -7019.1 -6901 -7011.1 -6926 -7005.1 
-6882.7 -6979.4 -6868.3 -6961.3 -6874.2 -6990.9 -6830.1 -6212.8 -6492.8 
-6080.7 -5926.5 -6445.3 -6199.4 -6919.2 -6650.2 -7376.5 -7136.8 -7632.1 
-7609 -7378.7 -7487.9 -7063.3 -7241 -6591.8 -6799.1 -5906.2 -6233 
-6413 -6268.3 -6733.6 -6586.5 -7191 -6977.8 -7634.8 -7425.1 -7654.4 
-7733.3 -7398.6 -7529.3 -6364 -6238.2 -6930.7 -6754.8 -7224.7 -7133.5 
-7503 -7403.1 -7690.4 -7615.2 -7312.9 -7577.3 -6802.1 -7078.7 -6402 
-6628 -6110.9 -6262.2 -6501.3 -6182.6 -7062.1 -6737.5 -7396 -7199.5 
-7586.7 -7479.4 -7506.1 -7627.6 -7057.1 -7292.5 -6572.9 -6812.7 -7448.4 
-7391 -6980.8 -6880.1 -7379.3 -7300 -6998.8 -6866.1 -7408 -7332.7 
-6972.7 -6836.9 -7423.3 -7343.2 -6988.8 -6853.8 -7258.7 -6364.5 -6861.7 
-7316.8 -7078.4 -7199 -6583.8 -6688 -6737.3 -6610.6 -6456.1 -6709.7 
-7149.1 -7234.9 -6993.2 -7207.7 -6219.6 -6436.3 -6338 -6268.7 -6687.7 
-6730.2 -6921.8 -6234 -6675.9 -6127.8 -6111.1 -6645.8 -6564.4 -7209.7 
-7146.5 -6634 -6531.3 -6610.9 -6492.6 -6671.2 -6534 -6651.5 -6588.4 
-6654.6 -6527 -6668.4 -6586.4 -6655.8 -6537.4 -6709.2 -6574.7 -6685.4 
-6546.2 -6698.9 -6578.4 -6640.5 -6556.8 -6632 -6566.3 -6653.4 -6526.8 
-6717.4 -6570.4 -6738.4 -6591.6 -6727.2 -6648 -6697.4 -6615.2 -6670.9 
-6552.5 -7180.6 -7098.5 -7088.3 -7115.7 -7224.8 -7055.9 -7174.8 -7100.4 
-7261 -7069 -7173.3 -7135 -7183.3 -7111.6 -7177.4 -7012.5 -7143 
-7025.4 -7181.5 -7025.3 -7136.9 -7044 -7145 -7034 -7222.2 -7117.8 
-7268.6 -7186.4 -7279.2 -7227.9 -7301.4 -7217.4 -7264.1 -7193.3 -7189.8 
-7169.2 -6620 -6842.3 -5912.3 -6157.8 -6203.2 -6125.9 -6587.4 -6387.1 
-7064.2 -6820.3 -7568.3 -7328.8 -7583.9 -7682 -7345.5 -7495.5 -7060.1 
-7200.3 -6452 -6726.4 -6101.6 -6149.9 -6425.9 -6244.7 -6885.2 -6664 
-7370.5 -7125.3 -7668.6 -7599.2 -7514.5 -7575.8 -6211.4 -6352.3 -6539.4 
-6243.5 -7102.9 -6774.1 -7503.1 -7308.7 -7670.4 -7579 -7539.9 -7727.5 
-7102.5 -7312.7 -6661.8 -6868 -6375.8 -6460.2 -6172.6 -6261.6 -6687.3 
-6417 -7116.3 -6943.9 -7396 -7314 -7642.6 -7565.7 -7265.2 -7523.3 
-6802.3 -7028.3 -6923.3 -6420.7 -7113.4 -6788.2 -6986.2 -6532.6 -6541.2 
-6373.4 -6422.9 -6206.2 -6592.1 -7395.3 -7230.3 -6765.5 -7002 -6319.7 
-6305.1 -6294.9 -6853.2 -6781.5 -6559.9 -6096 -6254.4 -6319.9 -6284.4 
-6307.3 -6178.5 -6378.9 -6294.8 -6315.1 -6290.7 -6361.6 -6254.2 -6288.5 
-6240.3 -6272.2 -6213.5 -6273.4 -6250 -6292.1 -6240.8 -6310.1 -6218.3 
-6352.2 -6277.6 -6426 -6357.3 -6402.6 -6345 -6375.9 -6294.4 -6464.2 
-6343.5 -6428.6 -6370 -6373 -6287.7 -6880.1 -6723.5 -6818.6 -6739.6 
-6737.1 -6632.4 -6752.9 -6639.9 -6815.8 -6678.4 -6859.6 -6689.2 -6903.5 
-6740.3 -6934.9 -6814.1 -6966.9 -6827.5 -6985 -6839.8 -6929.2 -6845 
-6964.3 -6861.7 -6935.2 -6799 -6904.1 -6731.4 -6858 -6732.2 -6847.7 
-6786.2 -6934.9 -6784.4 -6292.9 -6497.7 -6136.2 -6049.4 -6488.1 -6270.5 
-6880.6 -6668.7 -7363.7 -7117.8 -7644.6 -7579 -7445.2 -7520.7 -7194.1 
-7330.6 -6675.3 -6925.6 -5994.2 -6473.2 -6294 -6077.4 -6663.8 -6466.3 
-7103.7 -6863.5 -7567.5 -7337.8 -7643.2 -7686.9 -6442.4 -6368.8 -6201.3 
-6910.3 -6616.5 -7247.8 -7151.3 -7501.4 -7404.2 -7689.3 -7621.9 -7303.8 
-7554.8 -6806.2 -7056.1 -6396.6 -6595.1 -6082.3 -6197.2 -6515.4 -6114.8 
-7089.4 -6808.8 -7389.5 -7258.2 -7591.5 -7485 -7523.3 -7662 -7028.1 
-7288.1 -6347.7 -6342.9 -6838.2 -6579 -6583.6 -6409 -6190 -6431.3 
-6222.9 -6133.5 -6645.4 -6198.6 -6227 -6372.6 -6282.3 -6216 -6248.4 
-6237.6 -6130 -6568 -6386.2 -6787.5 -6128 -6167.2 -6359.8 -6496.2 
-6210.2 -6225.7 -6139.6 -6138 -6204.7 -6352.1 -6330.6 -6407.1 -6290.8 
-6309 -6331.5 -6211.9 -6232.2 -6240.7 -6242.4 -6227.9 -6337.1 -6256.1 
-7526 -7410.6 -7076.1 -7268.6 -6258.9 -6306 -6168.8 -6312.4 -6201.9 
-6363.3 -6030.4 -6324.8 -6467.9 -6280.7 -6624.7 -6304.5 -6506.1 -6487.3 
-6600 -6476 -6504.5 -6456.9 -6426.7 -6268.4 -6463 -6179.2 -6435.6 
-6190.6 -6452.7 -6311.4 -6440.3 -6217.6 -6423.5 -6334.7 -6440.2 -6313.2 
-6463.6 -6251.3 -6512.7 -6279 -6503 -6259.4 -6349.9 -6155.5 -6160.6 
-6058.8 -6594.2 -6430.4 -7060.1 -6822.6 -7529.4 -7276 -7545.6 -7632.2 
-7301.2 -7449.5 -6828.2 -7111.6 -6459.7 -6718.4 -6215.8 -6044.4 -6494.8 
-6380.4 -6892.6 -6678.1 -7369.9 -7129.8 -7667.6 -7606.6 -7107.3 -6786.7 
-7436.1 -7249 -7657.1 -7558.9 -7563.5 -7682.9 -7106.8 -7329.2 -6670.6 
-6895.9 -6280.3 -6480.9 -6119.5 -6225.2 -6677.1 -6366.6 -7148.6 -6956.9 
-7414.8 -7277.8 -7631.7 -7538.4 -7312.3 -7505.7 -6450.9 -6988.2 -6208 
-6632.6 -6827.2 -6465.5 -6737.9 -6336.3 -6576.1 -6887.6 -6657.1 -6127.2 
-6073.2 -6119.2 -6117.1 -6011 -7229.9 -7099.9 -7560.5 -7440.1 -7667.6 
-6424.3 -6221 -6386.1 -6249.9 -6848.7 -6603.7 -7083.7 -7293.9 -7108.4 
-6201 -6138.9 -5843.3 -6015.9 -5965.8 -5892 -6122.7 -6045.1 -5953.2 
-5963.8 -5913.4 -5995.9 -5924.7 -6088.2 -5914.6 -6061.6 -5995.7 -6153.2 
-6048.8 -6095.9 -6015.6 -6165.8 -6148.5 -6151.6 -6074.9 -6126.1 -6065.5 
-6073.6 -6853.7 -6666.7 -7314.2 -7101.2 -7634.1 -7541.9 -7458.6 -7547.7 
-7220.9 -7357.1 -6839.2 -7021.2 -6250.3 -6470.6 -6279.3 -6169.7 -6614.7 
-6406.2 -7085.1 -6851.5 -7550.5 -7316.7 -7531.7 -7462.3 -7679.8 -7646.3 
-7331.4 -7580 -6888.1 -7099.3 -6446 -6666.4 -6193 -6260.6 -6498.3 
-6218.5 -6947.4 -6714.6 -7321.1 -7183.1 -7579.4 -7454.5 -7511 -7667 
-6555.9 -6616.4 -6497.9 -6735 -6631.7 -6664.7 -6704.4 -6801.2 -6669.2 
-6895.1 -6710.4 -6824.6 -6643.7 -6905.3 -6699.9 -6824 -6634.5 -6900.9 
-6544.2 -6837.9 -6524.5 -6732.9 -6589.7 -6742.3 -5993.1 -7121.1 -6877.2 
-6933.7 -7087.6 -6303 -6196.9 -6688.3 -6480.8 -6146.8 -6051.5 -6265.6 
-7452 -7318.7 -7127.8 -6932.5 -6224.5 -6212.9 -7624.5 -7532.1 -6108 
-6255.7 -7552 -7330.5 -7595.3 -7705.3 -6136.3 -6199.7 -7073.6 -7089.8 
-6194.8 -6295.7 -6159.4 -6317.6 -6182.9 -6301.4 -6135.7 -6233.9 -6152.6 
-6230.5 -6127.7 -6240.4 -6200.3 -6247.1 -6227 -6306.6 -6251.6 -6331.2 
-6240.8 -6356.3 -7635.3 -7628 -7431.5 -7507.8 -7198.1 -7319.6 -6884.3 
-6755.2 -6898.2 -6781 -7573.4 -7682.8 -7272 -7459.2 -6948.7 -7091.8 
-6417.7 -6740.2 -6109.6 -6162.7 -6365.9 -6207.7 -6821.6 -6608.6 -7284.3 
-7063.8 -7132.3 -7388.2 -6635.3 -6884.6 -6318.2 -6449.1 -6262.5 -6174.3 
-6638 -6354.8 -7169.9 -6876.4 -7433.5 -7299.7 -7636.9 -7535 -7295.8 
-7035.4 -6626.2 -6823.5 -6965.5 -7172.1 -6980.2 -7043.3 -6951.3 -7080.2 
-7017 -7054 -6970.4 -7076 -7065.6 -7099.6 -7082.7 -7106 -7164.5 
-7232.6 -7151 -7233 -7144.5 -7169.9 -6432 -7290.9 -6405.3 -6561.8 
-6452 -7024.8 -6859.6 -7262.3 -6304.5 -6456.4 -6361.4 -6900.8 -6671.2 
-7355.7 -7113.4 -7538.3 -7334.3 -7408.5 -7564 -7546.4 -7697.8 -7522.8 
-7663.8 -7554 -7716.9 -7303.6 -7505.7 -7162.9 -7133.2 -7209.7 -7232.1 
-7348.4 -7404.5 -7361.5 -7449.4 -7387.2 -7451.1 -7416.4 -7523.3 -7418.1 
-7489.1 -7425.2 -7505.8 -7372.6 -7502.9 -7350.9 -7439.9 -7372.7 -7414.2 
-7440.1 -7476.9 -7645.6 -7453 -7514.3 -7582.3 -7175.6 -7417.5 -6716.5 
-7047 -6005.5 -6450.8 -6349 -6196.5 -6697.9 -6487.5 -7132.1 -6908.3 
-7412.6 -7637.7 -6920.1 -7157.6 -6438.8 -6700.9 -6036.4 -6209.8 -6451.7 
-6065.3 -6970 -6737.2 -7320.7 -7236.6 -7479.4 -7443.6 -6480.4 -6530.3 
-6454.4 -6576.8 -6526.3 -6576.7 -6514.5 -6625.4 -6538.7 -6633.4 -6570 
-6676.1 -6551.3 -6670.7 -6546.9 -6668.4 -6523 -6671.5 -6533.4 -6655.5 
-6535 -6652 -6766.7 -6932.2 -7414.2 -7203.1 -6719.4 -6574.8 -6650.3 
-7111.3 -6918.8 -7485.5 -7337.5 -7382.1 -7516.1 -7463.5 -7653 -7598.9 
-7559.1 -7364.5 -7622.1 -7557.6 -7609.1 -7689.3 -7568.6 -7687.6 -7321 
-7565.2 -7609.5 -7590.3 -7637.6 -7582.4 -7640.4 -7545.6 -7580.5 -7558.5 
-7584 -7543.8 -7594.9 -7543 -7592.2 -7597.6 -7602.9 -7593.1 -7632.3 
-7562.4 -7611.4 -6867.5 -6968.6 -6846.5 -6994.1 -6810.1 -6971.8 -6844.2 
-6971.5 -6841.1 -6999.6 -6866.6 -6978.2 -6900.4 -7018.2 -6932.6 -7023.3 
-6955.9 -7109.9 -6977.2 -7099.6 -7350.9 -7432.5 -7097.1 -7197.6 -6538.3 
-6842.3 -6113.6 -6385 -6410.3 -6208.6 -6793.5 -6584.7 -7148.9 -7350 
-7612.5 -6625.4 -6841.4 -6357.9 -6450.3 -6111.4 -6177.2 -6589 -6286.2 
-7147.8 -6894.3 -7462.3 -7287.8 -7654.5 -7540.4 -7242.2 -6878.2 -7068.6 
-7346 -7643 -7589.4 -7698.5 -7584.1 -7218.9 -7358.9 -6787.5 -6945.8 
-6452.7 -6563.2 -7643.9 -7457 -7249.3 -7433.4 -7279.6 -7396.6 -6202.6 
-6284.7 -7320.8 -7455.6 -7672.8 -7644.1 -7299.4 -7538.5 -7031.3 -7646.1 
-7660.8 -7673.2 -7533.8 -7545.6 -7380.5 -7564.2 -7340.6 -7495.4 -7346.2 
-7488.6 -7330 -7471.6 -7310.1 -7462.1 -7320.2 -7454.9 -6368.7 -6147.8 
-7031.5 -6716.9 -7291.4 -7162.1 -7607.7 -7631.1 -7685.2 -7643.1 -7711.7 
-7689 -7685.2 -7688 -7662.4 -7616.6 -7668.5 -7680.7 -7477.4 -7624.2 
-7166.9 -7301.2 -6689.6 -6979.2 -6310.9 -6433 -6301.4 -6193.4 -6578.9 
-6401.6 -7454.7 -7611.4 -7637.7 -7641.5 -7590.6 -7646.4 -7494.8 -7512 
-7624.9 -7437.6 -7659.3 -7596.2 -7678.8 -7681.1 -7632.5 -7656.4 -7645.3 
-7626.1 -7430 -7251.3 -6836.4 -6999.5 -6505.4 -6579 -6329.8 -7032.6 
-7268.9 -6777.3 -7382.1 -7447.7 -7619.4 -7632.6 -7412.6 -7276.2 -7640.1 
-7679.4 -7426.8 -7281.6 -7462.7 -7297.5 -7451.2 -7335.5 -7414.9 -7297.3 
-7461.3 -7327.2 -7113 -7254.4 -6560.3 -6813.3 -6236 -6260.5 -6407.9 
-6233.3 -6131.9 -6216.4 -6603.4 -6348.7 -7050.9 -6889.9 -6873.3 -6983.3 
-7509.9 -7447.1 -7194.4 -7358.3 -7392 -7239.3 -7315.5 -7397 -7444.8 
-7225.7 -6493.9 -6601.4 -6195.5 -6293.9 -7542.2 -7468.6 -7487.2 -7052 
-6848.3 -6723.7 -6935.8 -7013.5 -6927.5 -7065.1 -6876.1 -6193.6 -6119.9 
-6341.6 -6539.8 -7090.1 -6948.6 -7067.9 -6953.9 -7606.1 -7669.8 -7670.4 
-6215.8 -6115.3 -6812.5 -6603.3 -6852.6 -6527.7 -7498.9 -7430.6 -7429.2 
-7460.9 -7441.5 -7013.6 -7060.9 -6951.4 -6625.1 -6762.7 -7279.2 -7060.7 
-7234.2 -7272.5 -6360.2 -6514.1 -6484.3 -6622.3 -6230.2 -6301.6 -6201.7 
-7439.5 -7504.5 -7335.8 -7521.8 -7408.7 -6616 -6530.6 -6671.7 -6548.1 
-6681.4 -6560.9 -6680 -6569.7 -7050.8 -7234.7 -6427.9 -6836.8 -6115.1 
-6270.1 -6456.8 -6203.8 -7367.9 -7393.3 -6638.3 -7456.4 -6194.2 -6290 
-6118.9 -7163.2 -7144.2 -6957.3 -6744.4 -7221.3 -7310.2 -6301.1 -6396.7 
-6118 -7351.5 -7258 -7272.9 -6340.8 -6268.3 -6395.4 -6252.6 -6840 
-7025.3 -6398.8 -6509.8 -6326.3 -7017.9 -6238.2 -6265 -5987 -6079.5 
-6269.4 -6178.8 -6070.4 -6165.2 -6784.1 -6447.5 -6990.4 -7068.1 -6852.1 
-6906.5 -6537.9 -6446.1 -6558.1 -5849.2 -4328.8 -2229.5 609.28 -8004.8 
-7746.5 -7575.4 -7490.3 -8370.1 -8281.2 -8245.4 -8297.5 -8546.8 -8508.6 
-8507 -8551.7 -8642.9 -8636.2 -8651.5 -8678.5 -8717.1 -8722.3 -8745.1 
-8764.9 -8764.6 -8782.8 -8796.3 -8828.1 -8811.6 -8802.6 -8827.1 -8864.8 
-8795 -8805.9 -8806.5 -8833.7 -8494 -8516.2 -8581.5 -8626.1 -8577.7 
-8865.9 -9214.2 -8484.6 -8916 -9355.9 -8466.2 -8949.7 -9268.6 -8457.4 
-8959.8 -9214.2 -8534.6 -8986.5 -9279.9 -8623.2 -8992.3 -9360.5 -8658.4 
-9026.2 -9441.8 -8724.7 -9023.2 -9525.9 -8690.3 -9049.5 -9528.1 -8599.9 
-9039.2 -9517.8 -8515.5 -9056.9 -9449.1 -8528.9 -9042.4 -9390.2 -8531.1 
-9058 -9398.3 -8614.9 -9056.6 -9461.9 -8675.6 -9077.2 -9491.1 -8748.4 
-9082.7 -9547.6 -8799.4 -9086.7 -9542.4 -8798.8 -9081.3 -9563.3 -8699 
-9057.8 -9528.7 -8614.6 -9035.8 -9216 25888 23043 19381 16497 
3157.6 2518.6 1188.8 -781.49 -7564.3 -7402.9 -7537.4 -7934.3 -8709.8 
-8606 -8605.7 -8700.7 -8902.7 -8845.4 -8833.2 -8873.4 -8991.1 -8960.4 
-8944.8 -8961.1 -9039.4 -9010.4 -9000 -9010.4 -9062.2 -9025.6 -9035 
-9036.3 -9006.1 -9014.8 -9006.2 -9041.2 -8576.7 -8634.1 -8693.4 -8763.7 
-8494.7 -8835.8 -8791.5 -8673.5 -8824 -8810.4 -8666.9 -8829.8 -8818.5 
-8648.2 -8843 -8830.4 -8950.7 -9098.2 -9089.2 -8972.9 -9156.5 -9173.3 
-8975.8 -9099.8 -9099.5 -9275.9 -9110.8 -9044.3 -5526.1 -5312.4 -5459.6 
-6004 -7960.6 -7815.4 -7830.7 -7998.3 -8357.8 -8245 -8215.7 -8330 
-8458.6 -8408.6 -8395.1 -8445 -8606.5 -8590.7 -8614.6 -8624.6 -8683.3 
-8675.5 -8678.8 -8689.1 -8747.9 -8737.6 -8736.6 -8744.7 -8804 -8797.9 
-8796.8 -8798.5 -8802.2 -8793.8 -8793.4 -8807 -8469.1 -8440.1 -8460.6 
-8433.4 21258 21413 21197 20914 932.55 1660.7 1809.8 1370.9 
-7677.8 -7361.9 -7797.8 -8125.7 -8741.8 -8675.3 -8689.7 -8751.6 -8829.4 
-8780 -8787.8 -8837.4 -8899.3 -8864.1 -8864.7 -8895.7 -8949 -8925.5 
-8925 -8954.9 -8983.3 -8963.4 -8963.7 -8992.3 -9046.5 -9029.8 -9030.4 
-9039.6 -9135.3 -9104 -9137.7 -9146 -8491.5 -8842.9 -8858.6 -8487.8 
-8878 -9076 -8494.5 -8903.6 -9108.9 -8505.7 -8913.5 -9102.6 -8501.8 
-8917 -9101.1 -8512.8 -8908.4 -9045.9 -8517.3 -8880.3 -8930 -8500.4 