# vtk DataFile Version 4.2
vtk output
ASCII
DATASET UNSTRUCTURED_GRID
POINTS 8741 float
-51.5224 -42.469 32.9309 -51.5229 -30.469 32.9227 -51.5254 30.531 32.8809 
-51.5259 42.531 32.8727 -47.5334 46.531 32.6283 -35.5553 46.531 31.9033 
25.3332 46.531 28.2178 37.3113 46.531 27.4928 41.3042 42.531 27.2539 
41.3047 30.531 27.2621 41.3072 -30.469 27.3039 41.3077 -42.469 27.3121 
37.3152 -46.469 27.5565 25.3371 -46.469 28.2815 -47.5296 -46.469 32.692 
-35.5515 -46.469 31.9669 24.7593 46.5245 18.7352 23.4905 46.5101 -2.22647 
35.4686 46.5101 -2.95148 36.7373 46.5245 18.0102 -36.1293 46.5245 22.4206 
-48.1074 46.5245 23.1456 -49.3761 46.5101 2.184 -37.3981 46.5101 1.45899 
40.7302 42.5245 17.7712 -52.0999 42.5245 23.39 39.4614 42.5101 -3.19041 
39.4619 30.5101 -3.18219 40.7307 30.5245 17.7794 -52.0994 30.5245 23.3983 
-53.3682 30.5101 2.43662 -53.3687 42.5101 2.42841 40.7332 -30.4755 17.8212 
-52.0969 -30.4755 23.44 39.4645 -30.4899 -3.14043 39.465 -42.4899 -3.13221 
40.7337 -42.4755 17.8294 -52.0964 -42.4755 23.4482 -53.3651 -42.4899 2.48661 
-53.3656 -30.4899 2.47839 36.7412 -46.4755 18.0738 -48.1035 -46.4755 23.2093 
35.4724 -46.4899 -2.8878 23.4944 -46.4899 -2.16279 24.7631 -46.4755 18.7988 
-36.1254 -46.4755 22.4843 -37.3942 -46.4899 1.52267 -49.3723 -46.4899 2.24767 
-36.1263 -26.4755 22.4706 -32.1334 -30.4755 22.2317 -32.1329 -42.4755 22.2399 
20.7703 -42.4755 19.0378 20.7698 -30.4755 19.0296 24.7623 -26.4755 18.7852 
36.7404 -26.4755 18.0601 36.7382 26.5245 18.0238 24.7601 26.5245 18.7489 
20.7672 30.5245 18.9878 20.7667 42.5245 18.9796 -32.1364 42.5245 22.1817 
-32.1359 30.5245 22.1899 -36.1285 26.5245 22.4343 -48.1065 26.5245 23.1593 
-48.1044 -26.4755 23.1956 45.9684 30.4819 -44.651 45.9677 46.4819 -44.662 
36.9838 55.4819 -44.1244 21.013 55.4819 -43.1577 21.0134 46.4819 -43.1516 
17.0209 42.4819 -42.9071 17.0209 41.6819 -42.9066 -9.4307 41.6819 -41.3055 
-9.43027 31.2819 -41.2984 17.0213 31.2819 -42.8995 17.0214 30.4819 -42.8989 
21.0142 26.4819 -43.1379 21.8127 26.4819 -43.1862 21.8139 -0.01805 -43.168 
32.1949 -0.01805 -43.7964 32.1937 26.4819 -43.8145 36.9848 30.4819 -44.1073 
32.9923 26.4819 -43.8629 34.079 46.4943 -25.9094 22.1009 46.4943 -25.1844 
22.1005 55.4943 -25.1906 38.0713 55.4943 -26.1573 47.0552 46.4943 -26.6949 
47.0559 30.4943 -26.6839 38.0718 42.4943 -26.1484 38.0723 30.4943 -26.1402 
23.4905 46.5101 -2.22647 19.498 42.5101 -1.98206 19.4985 30.5101 -1.97384 
23.4913 26.5101 -2.21277 35.4694 26.5101 -2.93778 39.4619 30.5101 -3.18219 
35.4686 46.5101 -2.95148 39.4614 42.5101 -3.19041 17.7463 31.2902 -30.9214 
17.7459 41.6902 -30.9285 -8.70526 31.2902 -29.3203 -8.70569 41.6902 -29.3275 
32.9188 26.4902 -31.8365 22.5378 26.4902 -31.2081 32.9199 -0.00982 -31.8183 
22.5389 -0.00982 -31.19 19.498 42.5101 -1.98206 19.4985 30.5101 -1.97384 
23.4913 26.5101 -2.21277 35.4694 26.5101 -2.93778 -51.0539 26.4819 -38.7757 
-51.0528 -0.01805 -38.7576 -40.6718 -0.01805 -39.3859 -40.6729 26.4819 -39.4041 
-39.8743 26.4819 -39.4524 -35.8818 30.4819 -39.6968 -35.8819 31.2819 -39.6973 
-9.43027 31.2819 -41.2984 -9.4307 41.6819 -41.3055 -35.8823 41.6819 -39.7045 
-35.8823 42.4819 -39.705 -39.8752 46.4819 -39.4661 -39.8755 55.4819 -39.4722 
-55.8463 55.4819 -38.5056 -64.8295 46.4819 -37.9557 -64.8288 30.4819 -37.9447 
-55.8453 30.4819 -38.4885 -51.8524 26.4819 -38.7274 -63.7413 30.4943 -19.9776 
-63.742 46.4943 -19.9885 -54.7588 55.4943 -20.5385 -38.788 55.4943 -21.5051 
-38.7877 46.4943 -21.499 -50.7657 46.4943 -20.774 -54.7583 42.4943 -20.5296 
-54.7578 30.4943 -20.5213 -37.3981 46.5101 1.45899 -33.4052 42.5101 1.22006 
-33.4047 30.5101 1.22828 -37.3972 26.5101 1.47269 -49.3753 26.5101 2.19769 
-53.3682 30.5101 2.43662 -49.3761 46.5101 2.184 -53.3687 42.5101 2.42841 
-35.1568 31.2902 -27.7193 -35.1573 41.6902 -27.7264 -8.70569 41.6902 -29.3275 
-8.70526 31.2902 -29.3203 -50.3289 26.4902 -26.7976 -39.9479 26.4902 -27.426 
-39.9468 -0.00982 -27.4078 -50.3278 -0.00982 -26.7795 -33.4052 42.5101 1.22006 
-33.4047 30.5101 1.22828 -37.3972 26.5101 1.47269 -49.3753 26.5101 2.19769 
32.1959 -26.518 -43.7782 32.1949 -0.01805 -43.7964 21.8139 -0.01805 -43.168 
21.815 -26.518 -43.1499 21.0164 -26.518 -43.1016 17.0239 -30.518 -42.8572 
17.0239 -31.318 -42.8566 -9.42767 -31.318 -41.2556 -9.42724 -41.718 -41.2484 
17.0243 -41.718 -42.8495 17.0244 -42.518 -42.8489 21.0172 -46.518 -43.0879 
21.0176 -55.518 -43.0817 36.9884 -55.518 -44.0484 45.9716 -46.518 -44.5983 
45.9709 -30.518 -44.6093 36.9874 -30.518 -44.0655 32.9945 -26.518 -43.8266 
47.0584 -30.5057 -26.6422 47.0591 -46.5057 -26.6312 38.0759 -55.5057 -26.0813 
22.1051 -55.5057 -25.1146 22.1047 -46.5057 -25.1208 34.0828 -46.5057 -25.8458 
38.0754 -42.5057 -26.0902 38.0749 -30.5057 -26.0984 23.4944 -46.4899 -2.16279 
19.5015 -42.4899 -1.92386 19.501 -30.4899 -1.93208 23.4935 -26.4899 -2.17649 
35.4716 -26.4899 -2.90149 39.4645 -30.4899 -3.14043 35.4724 -46.4899 -2.8878 
39.465 -42.4899 -3.13221 17.7489 -31.3098 -30.8785 17.7493 -41.7098 -30.8714 
-8.70223 -41.7098 -29.2704 -8.70266 -31.3098 -29.2775 32.921 -26.5098 -31.8002 
22.54 -26.5098 -31.1718 22.5389 -0.00982 -31.19 32.9199 -0.00982 -31.8183 
19.5015 -42.4899 -1.92386 19.501 -30.4899 -1.93208 23.4935 -26.4899 -2.17649 
35.4716 -26.4899 -2.90149 -49.3731 -26.4899 2.23398 -37.395 -26.4899 1.50897 
-33.4022 -30.4899 1.27004 -33.4017 -42.4899 1.27826 -39.8722 -26.518 -39.4161 
-51.8502 -26.518 -38.6911 -51.0517 -26.518 -38.7394 -50.3267 -26.5098 -26.7614 
-39.9457 -26.5098 -27.3897 -40.6707 -26.518 -39.3678 -35.8788 -42.518 -39.6468 
-35.8793 -30.518 -39.655 -35.8793 -31.318 -39.6545 -35.1543 -31.3098 -27.6764 
-35.1538 -41.7098 -27.6693 -35.8788 -41.718 -39.6474 -54.7547 -42.5057 -20.4714 
-54.7552 -30.5057 -20.4796 -50.7619 -46.5057 -20.7103 -38.7838 -46.5057 -21.4353 
-50.3278 -0.00982 -26.7795 -39.9468 -0.00982 -27.4078 -40.6718 -0.01805 -39.3859 
-51.0528 -0.01805 -38.7576 -8.70266 -31.3098 -29.2775 -8.70223 -41.7098 -29.2704 
-9.42767 -31.318 -41.2556 -9.42724 -41.718 -41.2484 -38.7834 -55.5057 -21.4291 
-54.7542 -55.5057 -20.4625 -63.7381 -46.5057 -19.9249 -63.7388 -30.5057 -19.9358 
-64.8263 -30.518 -37.9029 -55.8428 -30.518 -38.4467 -64.8257 -46.518 -37.892 
-39.8713 -46.518 -39.4024 -39.8709 -55.518 -39.3963 -55.8417 -55.518 -38.4296 
-49.0575 -46.1645 32.7842 -50.3529 -45.2974 32.862 -51.2184 -43.9997 32.9135 
-51.5225 -39.469 32.9288 -51.5227 -36.469 32.9268 -51.5228 -33.469 32.9247 
-51.523 -27.419 32.9206 -51.5232 -24.369 32.9185 -51.5233 -21.319 32.9164 
-51.5234 -18.269 32.9143 -51.5235 -15.219 32.9122 -51.5237 -12.169 32.9101 
-51.5238 -9.11901 32.9081 -51.5239 -6.06901 32.906 -51.5241 -3.01901 32.9039 
-51.5242 0.03099 32.9018 -51.5243 3.08099 32.8997 -51.5244 6.13099 32.8976 
-51.5246 9.18099 32.8955 -51.5247 12.231 32.8934 -51.5248 15.281 32.8913 
-51.5249 18.331 32.8893 -51.5251 21.381 32.8872 -51.5252 24.431 32.8851 
-51.5253 27.481 32.883 -51.5256 33.531 32.8788 -51.5257 36.531 32.8768 
-51.5258 39.531 32.8747 -51.2221 44.0617 32.8532 -50.3566 45.3594 32.8 
-49.0613 46.2265 32.721 -44.5389 46.531 32.447 -41.5444 46.531 32.2658 
-38.5499 46.531 32.0845 -32.5109 46.531 31.719 -29.4665 46.531 31.5347 
-26.4221 46.531 31.3505 -23.3776 46.531 31.1662 -20.3332 46.531 30.9819 
-17.2888 46.531 30.7976 -14.2443 46.531 30.6134 -11.1999 46.531 30.4291 
-8.15548 46.531 30.2448 -5.11105 46.531 30.0605 -2.06663 46.531 29.8763 
0.9778 46.531 29.692 4.02223 46.531 29.5077 7.06665 46.531 29.3235 
10.1111 46.531 29.1392 13.1555 46.531 28.9549 16.1999 46.531 28.7706 
19.2444 46.531 28.5863 22.2888 46.531 28.4021 28.3277 46.531 28.0366 
31.3223 46.531 27.8553 34.3168 46.531 27.674 38.8392 46.2265 27.4005 
40.1346 45.3594 27.3227 41.0002 44.0617 27.2712 41.3043 39.531 27.2559 
41.3044 36.531 27.258 41.3045 33.531 27.26 41.3048 27.481 27.2642 
41.3049 24.431 27.2663 41.305 21.381 27.2684 41.3052 18.331 27.2704 
41.3053 15.281 27.2725 41.3054 12.231 27.2746 41.3055 9.18099 27.2767 
41.3057 6.13099 27.2788 41.3058 3.08099 27.2809 41.3059 0.03099 27.283 
41.306 -3.01901 27.2851 41.3062 -6.06901 27.2871 41.3063 -9.11901 27.2892 
41.3064 -12.169 27.2913 41.3065 -15.219 27.2934 41.3067 -18.269 27.2955 
41.3068 -21.319 27.2976 41.3069 -24.369 27.2997 41.3071 -27.419 27.3018 
41.3073 -33.469 27.3059 41.3074 -36.469 27.308 41.3076 -39.469 27.31 
41.0038 -43.9997 27.3315 40.1384 -45.2974 27.3848 38.8431 -46.1645 27.4638 
34.3206 -46.469 27.7377 31.3261 -46.469 27.919 28.3316 -46.469 28.1002 
22.2927 -46.469 28.4658 19.2482 -46.469 28.65 16.2038 -46.469 28.8343 
13.1594 -46.469 29.0186 10.1149 -46.469 29.2029 7.07051 -46.469 29.3871 
4.02608 -46.469 29.5714 0.98165 -46.469 29.7557 -2.06277 -46.469 29.9399 
-5.1072 -46.469 30.1242 -8.15163 -46.469 30.3085 -11.1961 -46.469 30.4928 
-14.2405 -46.469 30.677 -17.2849 -46.469 30.8613 -20.3293 -46.469 31.0456 
-23.3738 -46.469 31.2299 -26.4182 -46.469 31.4141 -29.4626 -46.469 31.5984 
-32.507 -46.469 31.7827 -38.546 -46.469 32.1482 -41.5405 -46.469 32.3294 
-44.535 -46.469 32.5107 24.9506 46.5266 21.896 25.1419 46.5288 25.0569 
23.6717 46.5121 0.76805 23.853 46.5142 3.76257 24.0343 46.5162 6.75709 
24.2155 46.5183 9.75161 24.3967 46.5203 12.7461 24.578 46.5224 15.7407 
26.485 46.5101 -2.40772 29.4795 46.5101 -2.58897 32.474 46.5101 -2.77022 
35.6498 46.5121 0.04304 35.8311 46.5142 3.03756 36.0123 46.5162 6.03208 
36.1936 46.5183 9.0266 36.3748 46.5203 12.0211 36.5561 46.5224 15.0156 
36.9287 46.5266 21.171 37.12 46.5288 24.3319 -35.938 46.5266 25.5815 
-35.7467 46.5288 28.7424 21.7148 46.5245 18.9194 18.6704 46.5245 19.1037 
15.626 46.5245 19.288 12.5815 46.5245 19.4723 9.53712 46.5245 19.6565 
6.49269 46.5245 19.8408 3.44826 46.5245 20.0251 0.40384 46.5245 20.2094 
-2.64059 46.5245 20.3936 -5.68502 46.5245 20.5779 -8.72945 46.5245 20.7622 
-11.7739 46.5245 20.9464 -14.8183 46.5245 21.1307 -17.8627 46.5245 21.315 
-20.9072 46.5245 21.4993 -23.9516 46.5245 21.6835 -26.996 46.5245 21.8678 
-30.0404 46.5245 22.0521 -33.0849 46.5245 22.2363 -47.916 46.5266 26.3065 
[...]
CELL_DATA 12638
SCALARS cell_scalars float
LOOKUP_TABLE default
-6900 -6640.7 -7160.9 -7313.9 -6396.1 -6658.6 -6693 -6998.8 -7424.3 
-7194.1 -7515.5 -6993.4 -7130 -6426.9 -6526.8 -5855.5 -6235.7 -5602.8 
-6291.1 -6395.2 -6984 -6902.2 -7399.8 -7135.5 -7283 -6645.3 -6789.9 
-6026.6 -6307.8 -5419.4 -5962.5 -5955.6 -6628.5 -6589.6 -7186.5 -6981.9 
-7425.2 -6877.9 -6992.8 -6268.8 -6377.2 -5641 -5931.7 -5449.4 -6111.2 
-6178.2 -6839.8 -6708.4 -7258.5 -7008.7 -7163.2 -6497.5 -6643.7 -5867.2 
-6145.1 -5294.7 -5735 -5655.9 -6390.4 -6350.6 -6952 -6794.8 -7320.7 
-7025.7 -7349.9 -7316.8 -6947.3 -7211.7 -7154.7 -6634.7 -7082.7 -6556.1 
-7004.3 -6507.1 -6986.8 -6488.1 -6936 -6466.1 -6944.1 -6471.6 -6924.6 
-6427.8 -6931.3 -6474.6 -6967.8 -6466.1 -6960.1 -6459.3 -6981.7 -6477.9 
-6943.8 -6467.3 -6966.5 -6467.3 -6954.2 -6426.1 -6909.4 -6420.7 -6901.3 
-6431.7 -6949.9 -6425.9 -6943 -6426 -6939.7 -6425.4 -6946.3 -6403.2 
-6908.5 -6388.8 -6895.5 -6375.7 -6864.3 -6356.6 -6884.7 -6327.9 -6849.6 
-6335.1 -6848 -6323.3 -6862.1 -6342 -6901.7 -6378.5 -6905.3 -6458.5 
-7024.2 -6935.7 -6684.1 -7172.5 -7302.1 -6882.5 -7286 -6968.7 -7146.5 
-6436.7 -6624.3 -5872.4 -5910 -5250.5 -6082.4 -5740.1 -6438.6 -6348.4 
-7006.2 -6916.3 -7286.6 -6800.6 -7015.7 -6332.5 -6396.5 -5616 -5959.9 
-5549.9 -6183.7 -6080.8 -6792.5 -6680.1 -7252.8 -7023.1 -7243.1 -6698 
-6814.5 -6173.5 -6156.2 -5400.1 -6091.6 -5861 -6564.3 -6444.1 -7114.2 
-7021.2 -7436.8 -6948.5 -7122.4 -6506 -6547.6 -5814.7 -6142.1 -5740.4 
-6378.2 -6188.8 -6915.7 -6773 -7388.5 -7214.2 -7464 -7066.5 -7350.2 
-7245.4 -6772.4 -7107.5 -6955.3 -6635.3 -6808.6 -6501.8 -6759.1 -6550.7 
-6699.5 -6503.2 -6759.3 -6557.6 -6791.5 -6587.3 -6748.7 -6544.7 -6786.3 
-6544.4 -6709.7 -6508.4 -6678 -6538.3 -6737.4 -6509.5 -6703.9 -6487.1 
-6712.7 -6493.7 -6704.5 -6505.8 -6664.4 -6494.4 -6695.6 -6522.1 -6703.5 
-6484.4 -6661.6 -6469.2 -6689.2 -6466 -6686.6 -6455.4 -6621.5 -6456.1 
-6608 -6484 -6660.9 -6459.5 -6612.9 -6446.5 -6635.1 -6402.6 -6647.7 
-6432.8 -6599.9 -6275.4 -6595.3 -6282.3 -6333 -6590.9 -6543.1 -6738 
-6545.3 -6592.4 -6447.2 -6556.9 -6667.6 -6367.3 -6451.8 -6513.6 -6332.2 
-6204.2 -6671.8 -6591.9 -6885.6 -6746.7 -6503.8 -6710.8 -5928.6 -6129.6 
-5500 -5635.1 -5597.9 -5368.2 -6289.4 -5991.3 -6651.9 -6532.8 -6816.8 
-6793.1 -6222.4 -6500.4 -5625.7 -5889.7 -5196.7 -5415.9 -5907.3 -5453.2 
-6461.9 -6185.8 -6668.5 -6539.9 -6440.5 -6649.6 -5824.4 -6095.7 -5287.7 
-5519.4 -5392.1 -5211.2 -6131.4 -5749.3 -6455.9 -6341.2 -6683.8 -6644.6 
-6060.7 -6333.1 -5446.7 -5674.1 -5141 -5212.6 -5742.4 -5398.4 -6273.9 
-6042.3 -6475.8 -6629.3 -6341.6 -6556.4 -6542.5 -6557.5 -6603.9 -6496 
-6624.2 -6533.3 -6604.3 -6548 -6583.4 -6587.5 -6629.8 -6574 -6654.7 
-6588 -6669.8 -6591.3 -6667.4 -6563.9 -6665.3 -6544.3 -6650.3 -6565.9 
-6662.2 -6578.2 -6650.6 -6528.4 -6655.7 -6541.5 -6653.2 -6502.6 -6610.4 
-6527.6 -6589.7 -6530.8 -6595.6 -6494.7 -6577.2 -6518.6 -6552.9 -6469.3 
-6548.2 -6492.3 -6546.7 -6394.5 -6506.9 -6397 -6497.8 -6504.6 -6522.6 
-6327.8 -6438.6 -6389.3 -6463.1 -6379.9 -6473.8 -6441.8 -6518.8 -6378 
-6561.4 -6387.7 -6487.5 -6373.9 -6490.2 -6393.5 -6518.6 -6384.5 -6504.2 
-6379.4 -6508 -6368.4 -6486.3 -6353.1 -6472.8 -6328.2 -6469.9 -6329.3 
-6464.3 -6335.7 -6465 -6316.9 -6433.1 -6314.9 -6423.6 -6292.8 -6430.7 
-6267.1 -6392.2 -6302.7 -6398 -6320.3 -6485.9 -6302.4 -6455.8 -6254.5 
-6416.1 -6228 -6370.8 -6245.8 -6347.5 -6208.4 -6341.6 -6534.8 -6657.6 
-6137.9 -6268.9 -5414.7 -5754.2 -5197.1 -5097.1 -5617.3 -5349.7 -6252.9 
-5919.6 -6712.9 -6536.6 -6411.7 -6473.5 -5903.2 -6192.8 -5255.3 -5512.1 
-5447.3 -5213.6 -6010.9 -5675.4 -6633.8 -6278.6 -6606.5 -6707 -6336.7 
-6520 -5687.1 -6047.9 -5259.1 -5304.3 -5777.5 -5507.7 -6397.6 -6062.1 
-6850.3 -6671.2 -6569.4 -6650.8 -6140.4 -6354.6 -5464.6 -5710.6 -5513.1 
-5396.3 -6064.6 -5746.5 -6664.6 -6322.4 -6831.3 -6823.9 -6609.3 -6718.4 
-6299.8 -6512.9 -6690.4 -6426.9 -6405.6 -6645.1 -6753.5 -6652.4 -6786.6 
-6583.9 -6570.4 -6257.1 -6342.9 -6037.1 -6319.4 -5805 -6074.5 -6525.1 
-6450.6 -5511.8 -5780 -5103.2 -5465.4 -5401.9 -5311.1 -6106.4 -5725.7 
-6564.3 -6273.6 -6803.8 -6643 -6465.9 -6709.4 -5853.3 -6139.3 -5403.7 
-5555.6 -5485.8 -5284.9 -6202.6 -5925.1 -6552 -6428.2 -6636.8 -6663.2 
-6063.3 -6378.2 -5484.9 -5756.3 -5246.9 -5261.5 -5824.7 -5544.9 -6393 
-6147.7 -6642.1 -6483.5 -6258 -6543.9 -5667.5 -5928.1 -5187.9 -5384.4 
-5294.3 -5091.5 -5314 -5121.8 -5861 -5566.3 -6495.9 -6162.5 -6507.4 
-6668.1 -6195.7 -6416.4 -5539.2 -5928 -5242.3 -5273.8 -5660.5 -5393.8 
-6276.8 -5947.8 -6694.6 -6557.4 -6452.5 -6570.2 -5989.5 -6254.5 -5280.2 
-5633.1 -5521.3 -5329.4 -6040.4 -5720.4 -6640.1 -6303.7 -6666.1 -6799.3 
-6380.4 -6585 -5767.5 -6171 -5375.9 -5487.2 -5760.2 -5515.6 -6219.9 
-5957.4 -5975.8 -5642.6 -6784.7 -6516.3 -6748.9 -6758.7 -6735.3 -6779.1 
-6782.4 -6795.8 -6801.4 -6892.8 -6756.5 -6854.7 -6739.2 -6844.7 -6786.1 
-6838.1 -6746.7 -6804.5 -6765 -6838.6 -6775 -6820.4 -6747.3 -6826.8 
-6745.1 -6817.5 -6731.8 -6823.8 -6743 -6824 -6717.7 -6803.9 -6725.3 
-6813.3 -6713.5 -6813.8 -6700.4 -6814.5 -6698.6 -6826.4 -6691.5 -6790.8 
-6703.5 -6834.1 -6745.3 -6826.1 -6649.8 -6818.2 -6595.2 -6707.7 -6565.3 
-6515.3 -6570.9 -6489.5 -6594.8 -6507 -6676 -6520.1 -6564.4 -6546.5 
-6597.1 -6446.9 -6641.9 -6498.7 -6628.5 -6513 -6660.5 -6520.1 -6621.3 
-6538.4 -6640.9 -6547.7 -6615.3 -6537.6 -6613.3 -6546 -6607 -6536.1 
-6571.4 -6493.6 -6571 -6509.7 -6573 -6513.2 -6554.7 -6496.9 -6577.7 
-6542.1 -6685.9 -6604 -6665.8 -6634.8 -6636.3 -6658.3 -6556.2 -6564.9 
-6522.8 -6557.5 -6543.6 -6534 -6298.5 -6765.2 -6532.3 -6586.6 -6632.4 
-6789.4 -6671.9 -6554.5 -6587.9 -6425.3 -6232.5 -6306.8 -6093.1 -6204.5 
-6319.6 -6200 -5532.7 -5692.5 -6294 -6564.8 -6719.2 -6515.7 -5789.2 
-5971.6 -5485.7 -5533.2 -5094.5 -5080.3 -6713.3 -6590.6 -6306.6 -6186.3 
-5626.1 -5548.4 -5522.4 -5282.3 -6681.8 -6631 -6263.6 -5850.5 -6634.3 
-6505.9 -6680.9 -6743.7 -6103.1 -6396.5 -5521.1 -5802.2 -5153.5 -5229.2 
-5970.8 -5595.6 -6485.8 -6243.2 -6742.1 -6590.1 -6339.1 -6652.1 -5699.3 
-6011.4 -5188.2 -5420.6 -5557.4 -5046.9 -6234.5 -5905.7 -6517.8 -6412.6 
-6571.7 -6642.5 -5952.9 -6297.6 -5348.3 -5627.8 -5081.3 -5207.2 -5684.7 
-5341.5 -6125.4 -5819.2 -6680.8 -6445.8 -6465.5 -6579.3 -6023.9 -6272.4 
-5339.4 -5720.3 -5345.4 -5121.6 -5894.5 -5567.3 -6532.2 -6195.3 -6659.3 
-6775 -6325.3 -6517.1 -5734.3 -6127.1 -5261.2 -5447.5 -5656.9 -5406.6 
-6258.1 -5964.4 -6800.8 -6583.7 -6567.7 -6684.4 -6020.5 -6323.7 -5652.2 
-5838.5 -5520.4 -5548.1 -5961.1 -5687.8 -6497.5 -6200.3 -6737.6 -6600.9 
-6762.3 -6587 -6716.6 -6544.7 -6706.2 -6552 -6712.7 -6583.6 -6725.2 
-6573.3 -6736.3 -6580.4 -6742.6 -6585.8 -6746.1 -6583.5 -6761.1 -6615.1 
-6777 -6611.9 -6741.1 -6637.9 -6779.5 -6623.3 -6797.5 -6644 -6790.3 
-6651.2 -6801.6 -6647.2 -6794 -6662.8 -6789.5 -6650 -6818 -6650 
-6789.4 -6668.2 -6763.2 -6662 -6309.8 -6237.2 -6340.9 -6182.4 -6379.5 
-6243.1 -6279.9 -6252.8 -6220.8 -6193.7 -6256.3 -6203.9 -6274.1 -6163.9 
-6286 -6186.7 -6318.3 -6221 -6311.9 -6220 -6353.9 -6254.2 -6385.2 
-6312.2 -6383.5 -6290.6 -6423.6 -6323.3 -6396.5 -6329.8 -6409.9 -6334.3 
-6425.9 -6329.5 -6392.7 -6316.2 -6350.1 -6219.6 -6428.3 -6317.3 -6387.8 
-6317.8 -6358.3 -6253.9 -6666 -6727.4 -6780.7 -6363.5 -6290.4 -6703.7 
-6730.9 -6632.5 -6147.1 -5868.6 -6170.3 -6372.6 -6076.7 -5911.4 -5710.7 
-6006 -5959.2 -5978.1 -6232.6 -6293.1 -5517.7 -5736.3 -5425.2 -5270.3 
-6021.3 -5673.6 -5081.6 -5278.9 -5349.9 -5057.9 -5864 -5560.6 -5686.7 
-5862.2 -6094.4 -5921.3 -5342.8 -5555.2 -6394.1 -6231 -6088.4 -5911.4 
-5438.9 -5460.6 -5260.8 -5076.3 -6298.7 -6163.2 -6458 -6223 -6470.2 
-6164 -6098.9 -5964 -5982.5 -5891.1 -5993.9 -5852.9 -5989.9 -5799 
-6034 -5791.4 -6042.6 -5804.6 -6006.2 -5795.5 -5990.2 -5875.6 -6040.8 
-5912.1 -6034.4 -5910.3 -6015.7 -5888.5 -6008.1 -5871.4 -5988.6 -5868.5 
-6029.3 -5864.8 -5984.7 -5778 -6315.6 -6116 -6358.9 -6189.7 -6378.6 
-6226.5 -6373.1 -6210.7 -6363.9 -6217 -6311 -6184.4 -6255.5 -6105.2 
-6259.5 -6088.7 -6249.4 -6098.9 -6236.4 -6074.5 -6237.9 -6086.2 -6219.7 
-6063.5 -6203.2 -6051.7 -6179 -6049.7 -6214.2 -6012 -5632.3 -5383.8 
-6238.9 -5889.5 -6647.8 -6527.7 -6256.7 -6459.5 -5750.2 -6058.3 -5065 
-5320.7 -5534.3 -5319.3 -6066.5 -5795.6 -6612.3 -6385.1 -6515.9 -6649.1 
-6128 -6374.7 -5371.2 -5773.1 -5369.4 -5240.5 -5844.2 -5605.4 -6407 
-6135.5 -6760.8 -6696.3 -5823.1 -5459.1 -6367.3 -6151.9 -6660 -6569.5 
-6608.9 -6739.2 -6026.8 -6343.6 -5431 -5737.1 -5270.1 -5253.3 -6118.5 
-5666.9 -6518.8 -6300.6 -6757.3 -6628.7 -6200.7 -6532.3 -5589 -5896.2 
-5190.9 -5402.6 -5636.6 -5325 -6207.5 -5922.6 -6543.5 -6405.9 -5960.1 
-5843.4 -6187.3 -6050.4 -5920.1 -5727.1 -6250.5 -6027.7 -5982.1 -5813.5 
-6220.6 -6066.9 -6010.3 -5878.2 -6249.7 -6081.5 -6653.9 -6654 -6098 
-5854.9 -5229.1 -5516.9 -5703.1 -5822.2 -5908.5 -5743.4 -5529.8 -5850 
-5363 -5554.9 -5185.5 -5603.4 -5322.5 -5475.6 -5744.9 -5449.5 -6138.3 
-5158 -4995 -5586.2 -5280.4 -6202 -5858.8 -5784.8 -5695.4 -5458.2 
-5348.9 -5714.5 -5621.5 -5736.8 -5617 -5777.2 -5619 -5731.5 -5638.9 
-5760.9 -5586.8 -5774 -5684 -5802 -5694.3 -5849.9 -5713.3 -5843.4 
-5695.8 -5855.9 -5721.6 -5849.6 -5712.3 -5860.8 -5705.1 -5795.4 -5651.7 
-5832.3 -5669.1 -5830 -5592.2 -5875.1 -5732.1 -5834.5 -5669.5 -5806.1 
-5675.3 -5329 -5200.3 -5246.8 -5126.4 -5344.9 -5128.8 -5239.4 -5159.8 
-5301.7 -5228.3 -5226.8 -5227.4 -5337 -5203.4 -5374.4 -5240.3 -5332.5 
-5239.5 -5344.1 -5165.9 -5339.5 -5141.2 -5348.1 -5049.1 -5407.5 -5099.4 
-5571 -5168.7 -5537 -5403.9 -5548.2 -5401.2 -5554.4 -5324.5 -5481.3 
-5302.9 -5331.8 -5173.2 -5952 -5626.9 -6543.3 -6261.5 -6550 -6686.9 
-6214 -6393.2 -5501.5 -5888.6 -5136.3 -5036.4 -5679.1 -5376.3 -6303.5 
-5998.7 -6733.3 -6564.4 -6468.7 -6589.7 -6044.7 -6243.3 -5437.3 -5587.8 
-5531.8 -5325.9 -6132.9 -5820.1 -6728.4 -6423.3 -5330.4 -5385.8 -6026.9 
-5601.6 -6572.7 -6293.5 -6782 -6667.6 -6282.5 -6584.5 -5704 -5939.9 
-5322.7 -5479.3 -5622.9 -5158.7 -6207.4 -5916.1 -6562.7 -6458.7 -6583 
-6720.8 -5960.9 -6269.3 -5438.5 -5664.2 -5121.9 -5241.3 -5889.4 -5548.7 
-6362.1 -6180.5 -5174 -5466 -5293 -5189.2 -5055.4 -5639.8 -5664.7 
-5407.6 -6629.7 -6463.8 -6512.4 -6788.8 -6633 -6252.5 -6490.7 -5350 
-5387.8 -5396.8 -5080.9 -5155.3 -5314.1 -5898.5 -5629.8 -5370.7 -5333.6 
-5404.7 -5391.1 -5496.2 -5530.6 -5456.5 -5459.4 -5477.3 -5406.5 -5343.8 
-5326.5 -5322.3 -5292.1 -5320.9 -5295.8 -5338.4 -5275.2 -5363.6 -5312.9 
-5350.3 -5285.8 -5460.7 -5322.8 -5532.1 -5571.6 -5469.3 -5401.4 -5424.5 
-5438.9 -5493.6 -5405.4 -5400.6 -5342.2 -5064.2 -5232.9 -5191.8 -5267.9 
-5186.4 -5280.9 -5216.5 -5263.8 -5140.7 -5251.7 -5126.2 -5248.3 -5186.8 
-5229.1 -5148.8 -5213.2 -5088.1 -5168.2 -5029.3 -5170.6 -5038.5 -5172.6 
-5043.1 -5102.2 -5116.4 -5196.9 -5270.6 -5290 -5123.7 -5243.3 -5076.2 
-5162.5 -4955.4 -5082.8 -5610.5 -5363 -6263.2 -5895.7 -6673 -6580.3 
-6289.4 -6465.7 -5789.7 -6111.8 -5190.2 -5465.1 -5439.3 -5332.7 -5998.6 
-5721.9 -6603.8 -6320.3 -6570.7 -6704.5 -6262.5 -6474 -5551.6 -5962.2 
-5295.7 -5210.2 -5778.8 -5495.4 -6352.7 -6021 -5870.9 -5479.3 -5320.7 
-6363.9 -6120.1 -6674.7 -6530.6 -6637.6 -6781.7 -6019.2 -6352.8 -5430.5 
-5709.8 -5248.6 -5214.9 -6106.5 -5710.5 -6525.6 -6363.9 -6738.7 -6652.3 
-6195.2 -6517.6 -5588.8 -5892.9 -5195 -5344.6 -5620.1 -5307.2 -6217.4 
-5923.9 -5432.9 -5280.1 -5092.3 -5335 -6153.4 -5846 -5533.2 -5851.7 
-5719.7 -5484.9 -6111.4 -5433.1 -5696 -5456.7 -5662.3 -5321.5 -5585.7 
-6495.3 -6218.6 -6566.1 -6652.6 -6431.5 -5469.8 -5603.6 -5698.1 -5852.8 
-5407 -5598.9 -5667.3 -5758.8 -5439.6 -5635.7 -5414.5 -5580.1 -5573.7 
-5700.5 -5480.7 -5683.1 -5570.7 -5738 -5609.3 -5721.6 -5612.1 -5760.7 
-6674 -6797.9 -6528.9 -6664.5 -5618.1 -5905 -5672.9 -5899.1 -5696.6 
-5898.9 -5924.9 -5588.5 -5420.3 -5619.2 -5352.4 -5574.4 -5421.9 -5497.2 
-5395.5 -5537.8 -5410.1 -5520.5 -5474.1 -5574.6 -5486.2 -5656.4 -5474.9 
-5677.5 -5464.7 -5638.2 -5446.3 -5627.9 -5454.4 -5580.6 -5453.9 -5596.7 
-5448.2 -5641.4 -5474.8 -5667.9 -5527.5 -5652 -5541.6 -5721.4 -6516.2 
-6233.5 -6546.7 -6645 -6206.7 -6418.5 -5543 -5907.5 -5205.8 -5141.1 
-5731.4 -5409.1 -6349 -5992.3 -6707.9 -6654 -6425.4 -6563 -5848 
-6192.2 -5197 -5489 -5550.7 -5337.7 -6065.9 -5799.6 -6554.1 -6352.9 
-6768.7 -6664 -6312.3 -6554.7 -5738.9 -6011.2 -5380.2 -5482.2 -5555.2 
-5334 -6262 -6001 -6584.3 -6421 -6576.8 -6788.4 -5970.8 -6279.7 
-5450.8 -5706.9 -5170.8 -5255 -5809.6 -5523.8 -5903.3 -6419.4 -5649.4 
-6125.1 -6351.5 -5965.7 -6187.4 -5918 -6118 -6361.1 -6196.8 -6267.9 
-6021 -5934.8 -6261.2 -5855.1 -6637.9 -6562.5 -6616.5 -6761.5 -6337.9 
-6654.7 -6577.5 -6673 -6564.4 -6350 -6516.3 -6130.7 -6664.9 -6550.6 
-5823.5 -6060.7 -5817.9 -6005.6 -5902.4 -6018 -5910.2 -6083.2 -5934.2 
-6104.2 -5958.1 -6113.9 -6003.5 -6120.8 -6005 -6159.6 -6062.9 -6194.6 
-6040.7 -6225.5 -6065.5 -6253.7 -6096.4 -6252.5 -6046.3 -6271.6 -6083.7 
-6235.8 -6370 -6453.1 -5872.4 -6151.7 -5208.5 -5496.6 -5368.7 -5241.1 
-5947.5 -5655.6 -6610.6 -6286.4 -6618 -6747.5 -6276.8 -6467.3 -5642.5 
-5970.8 -5272.6 -5279.4 -5734.5 -5452.7 -6591 -6779.7 -6025.8 -6318.6 
-5481.7 -5758.2 -5207.6 -5264.1 -5990.8 -5633.5 -6461 -6233.4 -6781.4 
-6618 -6292.4 -6596.1 -5661.4 -5965.1 -5177.5 -5382.4 -5623.5 -5208.8 
-6066.2 -6105.7 -6035.9 -6218.8 -6115.7 -6239.6 -6181.2 -6289.6 -6107.6 
-6347.2 -6098.8 -6245.9 -6070.3 -6301.1 -6106.1 -6231.5 -6086.8 -6316.9 
-6157.9 -6291.7 -6124 -6260.4 -6159 -6300 -5979.5 -6580.6 -6391.2 
-6399.9 -6540.3 -6653.1 -6437.7 -6487.3 -6647 -6354.2 -6283.4 -6584.6 
-6807.6 -6723.8 -6076 -6312.3 -6380.5 -6558.4 -6339.7 -6640.8 -6383.4 
-6556.6 -5490.7 -5879.2 -5756 -6082.7 -6445.8 -6562.9 -6527.7 -6559.1 
-6516.1 -6661.2 -6492.7 -6664.7 -6466.6 -6637.5 -6472.6 -6587.9 -6486.9 
-6581.4 -6530 -6624 -6548.9 -6672.2 -6577.5 -6689.9 -6568.9 -6703.5 
-6543.2 -6665.3 -6040.4 -6332.6 -6806.1 -6644.6 -6593.8 -6750.6 -6347.5 
-6247.9 -6378.2 -6304.7 -5164 -5129.5 -5690.7 -5362.6 -6312.8 -6003.8 
-6720.1 -6594.6 -6486.4 -6629.8 -6046.6 -6307.9 -5275.7 -5686.9 -5423.9 
-5289 -5332.1 -5537.5 -5718.2 -5314.1 -6235.6 -5938 -6565.1 -6431 
-6593.5 -6707.2 -5968.1 -6303.1 -5378.4 -5705.9 -5207.7 -5185.5 -5968 
-6246.8 -6540.5 -6412 -6450.3 -6563.8 -6500.4 -6525 -6511.5 -6565.4 
-6533.7 -6574.9 -6518.1 -6575.2 -6572.2 -6605.3 -6598.5 -6607.5 -6573.7 
-6654.4 -6534.1 -6631.8 -6562.4 -6623.8 -6644.5 -6678.4 -6685.8 -6569.4 
-6658.4 -6232.4 -6376.6 -5935.6 -6646.2 -6627.8 -6645.7 -6342 -6476.5 
-5780.6 -6122.1 -5389.3 -6705.3 -6782.1 -6500.3 -6617.5 -6138.7 -5674.8 
-5989.1 -6584 -6235.3 -6721 -6799.6 -6587.6 -6554.2 -6603.1 -6643.8 
-6717.8 -6774.8 -6701.4 -6737.1 -6700.2 -6763 -6706 -6737.5 -6721.5 
-6735.3 -6738.2 -6749.6 -6726.8 -6757.6 -6730.6 -6722.8 -6801.1 -6792.9 
-6736.3 -6791 -5152 -5716.6 -5309.3 -5222.4 -5930.1 -5561.5 -6529.9 
-6232.4 -6540.8 -6705.7 -6174.1 -6390.1 -5552.6 -5956.3 -5440.4 -5337.8 
-5579.7 -5865.8 -5281.7 -5363.5 -5978 -5492.6 -6517.7 -6309.5 -6751.7 
-6646.3 -6285.6 -6609 -5724.4 -5964.6 -5383 -5485 -6647.8 -6584.2 
-6706.2 -6540.8 -6674.2 -6590.4 -6651.1 -6543.3 -6596.7 -6489.9 -6558 
-6472 -6572.3 -6452 -6573.9 -6473.4 -6604.5 -6467.1 -6565.6 -6488.7 
-6599.3 -6500.8 -6430.1 -6330.1 -5740.3 -6055 -6443.7 -6552.9 -6492.6 
-6136.6 -6318.3 -6739.9 -6729.9 -6796.2 -6685.9 -6790.1 -6275.1 -6569.7 
-5548.3 -5840.9 -5125 -6581 -6443.6 -6021.1 -5746.1 -6038.1 -5551.3 
-6529.1 -6398.8 -6558.1 -6389 -6532.1 -6379.5 -6546.4 -6392.6 -6564.7 
-6387.8 -6573.3 -6415.7 -6556.1 -6401.6 -6524.2 -6378.3 -6515.7 -6365.2 
-5231.8 -5274.5 -6361.3 -6297.7 -6358.5 -6240.7 -6400.2 -6245.7 -6358 
-6226.9 -6377.8 -6226.9 -6373.6 -6285.7 -6376.1 -6271.8 -6338.1 -6249.5 
-6257.7 -6131.1 -6257.1 -6143.2 -5591.8 -5442 -6187.6 -5911.9 -6735.4 
-6534.9 -6531.8 -6651.9 -6101.2 -6361 -5406.1 -5758.8 -5352.4 -5510.5 
-5821.1 -5635.6 -5247.2 -6219 -6010.8 -6582 -6435.4 -6653.9 -6713.9 
-6012.8 -6362.4 -5421.7 -5709.5 -5989 -6603.9 -5948.3 -6343.5 -6162.5 
-5851.8 -6273.9 -6415.4 -6016.4 -5868.2 -5375.1 -5504.5 -5332.5 -5196 
-5964.5 -5793 -5346.3 -5627.8 -5925.1 -5723.4 -5948.8 -5793.1 -6398.6 
-6302.6 -5868.2 -5671.5 -6011.6 -6309.5 -5456.6 -5728.8 -5239.1 -6059.9 
-5862.2 -5239.4 -5542.1 -5239.5 -5847.2 -5444.6 -5874 -5590.7 -5817 
-5675.7 -5844 -5648.3 -5858.2 -5648 -5874.1 -5666.1 -6706.1 -6576.5 
-6322.4 -6639.5 -5741.7 -6037.2 -6105.8 -5922.8 -6085.3 -5913.2 -6020.9 
-5917.9 -6021.5 -5872.8 -6043.1 -5859.4 -6015.6 -5866.6 -5335.4 -5117.8 
-5934.6 -5603.7 -6552.1 -6204.2 -6640.2 -6702.8 -6294.7 -6504.1 -5755.1 
-6064.7 -5719.2 -5230.9 -5403.5 -5382.4 -5840.2 -5953.3 -5672.2 -5334.3 
-5165.5 -5484.4 -5155.1 -5024.5 -5409 -5268 -5325 -5281.2 -5284.3 
-5160.9 -5601.9 -5420.8 -5415.3 -5345.2 -5932.5 -5763.7 -6231.1 -5287.6 
-5424.2 -5363.5 -5576.1 -5343.3 -5323.8 -5247.7 -5571.9 -5457 -5378.5 
-5282.3 -5544.1 -5427.6 -5641 -5425.9 -5632.4 -5532.1 -5619.9 -5456.6 
-5651.3 -5536.1 -6169.5 -5878.4 -6713.3 -6519.8 -6498.6 -6645.1 -6069.8 
-6299.5 -6576.8 -6404.2 -6687.8 -6700 -6093 -6390.6 -5217.6 -5250.7 
-5273 -5365.3 -5924.3 -5630.5 -5588 -5379 -5524.3 -5541.4 -5351.6 
-5795.5 -5910.1 -5695.8 -6392.1 -6209 -5196.2 -5376.3 -5333.4 -5347.6 
-5375.1 -6528.8 -6238.1 -5267.3 -5444.6 -5308.9 -5146.2 -6667.3 -6544.9 
-6685.7 -6726.4 -5331.1 -5323.9 -5322 -5314.5 -5290.6 -5124.1 -5069.7 
-6355.5 -6551.1 -5384.8 -5750.1 -6448.6 -6694 -5241.6 -5446.1 -5484.9 
-5348.1 -5406.5 -5267.4 -5312.5 -5237.3 -5701 -5415.1 -5703.2 -6200.6 
-5833.2 -5735.6 -6139.1 -5859.9 -5869.5 -5697.4 -6363.4 -6157.8 -6515 
-5432.2 -5275.3 -5659.5 -5252.6 -5424.5 -5697.4 -5856.8 -5514.2 -5838.7 
-5564.9 -5798.8 -5564.8 -5768.7 -6190.6 -5874.1 -6667.5 -6453.7 -6559.4 
-6624.8 -6731.7 -6609.5 -5692.3 -5614.8 -5663.4 -5395.3 -6386.6 -6215.1 
-6536 -5999.1 -5976 -6278.1 -6561.5 -5885.9 -5680 -6231.9 -6100.1 
-6467.9 -5680.9 -5829.7 -5824.2 -6155.4 -6300.9 -6120.2 -6264.9 -6496.6 
-6220.8 -6676.2 -6715.3 -6235.9 -6183.9 -6430.9 -6531.8 -6531.1 -6562.2 
-6694 -6488 -6637 -6598.5 -6539.4 -6705.7 -6247.4 -6174.5 -6398.1 
-6367.2 -6688.7 -6715.1 -6720.2 -6798.4 -6536.3 -6509.2 -6605.6 -7341.6 
-7240.8 -7243.9 -7361.2 -7555.5 -7518.2 -7537.5 -7604.6 -7675.3 -7663.4 
-7688.6 -7730 -7750.3 -7758 -7785.2 -7803.1 -7812.2 -7824.2 -7846.6 
-7853.2 -7857.4 -7861.8 -7878.5 -7903.3 -7882.2 -7888.3 -7893 -7926.7 
-7887.2 -7870.6 -7887.8 -7897.5 -7631.9 -7696.3 -7647.7 -7506.3 -7516.5 
-7936.6 -8061.8 -7505.4 -7992.1 -8194.6 -7620.4 -8020.8 -8344 -7693.5 
-8046.5 -8452.5 -7805.8 -8054.4 -8511.2 -7708.2 -8056.7 -8501.5 -7628.4 
-8070 -8427 -7547.7 -8065.7 -8340.2 -7611.5 -8079.7 -8352.6 -7707.1 
-8088 -8484.4 -7771.5 -8091.5 -8630 -7778.7 -8103.3 -8642.7 -7671.2 
-8101.2 -8557.8 -7609.3 -8111.4 -8433.2 -7616.3 -8127.2 -8397.2 -7716.4 
-8131 -8509.3 -7799 -8150.6 -8581.4 -7881.9 -8150.8 -8633.9 -7802 
-8142.5 -8600.4 -7701.1 -8125.9 -8305.8 23007 24408 23319 22271 
1941.6 3437.2 2945.2 1607.7 -7058.5 -6542.8 -6366.9 -6785.4 -7796.1 
-7678.8 -7663 -7746.6 -7964 -7910.4 -7908.8 -7966.8 -8054.1 -8021.9 
-8030.4 -8066.9 -8118.3 -8089.6 -8097.1 -8121.2 -8145.9 -8120 -8126.9 
-8154 -8100.7 -8107.3 -8118.4 -8141.4 -7665.7 -7737.8 -7821.4 -7945.3 
-7733.7 -7839.4 -7909.2 -7659.1 -7910.3 -7876 -7755.9 -7911.5 -7878.6 
-7779.7 -7909.3 -7900.7 -8047.2 -8223.3 -8203.9 -8094.6 -8276.2 -8252.2 
-8098 -8238.1 -8235.7 -7893.1 -8196.8 -8259.8 -6351.9 -6195.4 -6275.8 
-6570.8 -7062.1 -6932.9 -6941 -7065.6 -7499.8 -7465.2 -7474.1 -7510.1 
-7618.6 -7605 -7606.1 -7618.8 -7662.7 -7664.2 -7662.2 -7660.9 -7787 
-7779.2 -7776.8 -7782.6 -7893.4 -7871.8 -7868.9 -7877.8 -7878.8 -7857.3 
-7854.8 -7867.9 -7756.3 -7739.1 -7736.2 -7748.2 -7777.4 -7780.5 -7780.4 
-7778.9 38714 38980 39388 38614 15297 16298 17509 16680 
-2161.8 -1809.8 -2095.7 -2606 -7473 -7328.8 -7355.4 -7533.7 -7957.5 
-7895.5 -7901.4 -7974.9 -8172.3 -8152.3 -8157 -8181.6 -8275.7 -8280 
-8282.9 -8284.8 -8259.2 -8253.7 -8256 -8268 -8197.5 -8179.5 -8181.6 
-8192.5 -7813.7 -7808 -7807.1 -7827.9 -7774.9 -7778.7 -7995.3 -7777.2 
-7807.4 -8198.8 -7792.3 -7837.3 -8255 -7817.9 -7855.5 -8272.6 -7830 
-7862.8 -8275.4 -7830.6 -7871.6 -8268.3 -7828.9 -7887.8 -8250.4 -7825.1 