# vtk DataFile Version 4.2
vtk output
ASCII
DATASET UNSTRUCTURED_GRID
POINTS 8741 float
-50.4588 -42.4851 30.2099 -50.459 -30.4851 30.2059 -50.4601 30.5149 30.1859 
-50.4604 42.5149 30.1819 -46.4665 46.5149 29.9595 -34.4849 46.5149 29.2962 
26.4218 46.5149 25.9243 38.4035 46.5149 25.261 42.3974 42.5149 25.0412 
42.3977 30.5149 25.0451 42.3988 -30.4851 25.0652 42.399 -42.4851 25.0691 
38.4052 -46.4851 25.2916 26.4235 -46.4851 25.9549 -46.4649 -46.4851 29.9901 
-34.4832 -46.4851 29.3268 25.8967 46.5118 16.4388 24.7359 46.5048 -4.52906 
36.7175 46.5048 -5.19239 37.8784 46.5118 15.7755 -35.01 46.5118 19.8107 
-46.9917 46.5118 20.474 -48.1525 46.5048 -0.49385 -36.1708 46.5048 -1.15717 
41.8723 42.5118 15.5557 -50.9855 42.5118 20.6965 40.7115 42.5048 -5.41218 
40.7117 30.5049 -5.40823 41.8725 30.5118 15.5597 -50.9853 30.5118 20.7004 
-52.1461 30.5049 -0.26748 -52.1463 42.5048 -0.27143 41.8736 -30.4882 15.5797 
-50.9842 -30.4882 20.7205 40.7128 -30.4951 -5.38818 40.7131 -42.4951 -5.38423 
41.8739 -42.4882 15.5837 -50.9839 -42.4882 20.7244 -52.1447 -42.4951 -0.24348 
-52.145 -30.4951 -0.24743 37.8801 -46.4882 15.8061 -46.99 -46.4882 20.5046 
36.7192 -46.4951 -5.16181 24.7376 -46.4951 -4.49848 25.8984 -46.4882 16.4694 
-35.0083 -46.4882 19.8413 -36.1691 -46.4951 -1.12659 -48.1508 -46.4951 -0.46327 
-35.0087 -26.4882 19.8347 -31.0147 -30.4882 19.6149 -31.0145 -42.4882 19.6189 
21.9044 -42.4882 16.6892 21.9042 -30.4882 16.6852 25.898 -26.4882 16.4628 
37.8797 -26.4882 15.7995 37.8787 26.5118 15.7821 25.8971 26.5118 16.4454 
21.9031 30.5118 16.6652 21.9029 42.5118 16.6612 -31.0161 42.5118 19.5909 
-31.0159 30.5118 19.5949 -35.0097 26.5118 19.8173 -46.9913 26.5118 20.4806 
-46.9903 -26.4882 20.498 47.4316 30.4913 -46.843 47.4313 46.4913 -46.8483 
38.4449 55.4913 -46.3538 22.4694 55.4913 -45.4693 22.4695 46.4913 -45.4664 
18.4757 42.4913 -45.2439 18.4757 41.6913 -45.2437 -7.98374 41.6913 -43.7788 
-7.98355 31.2913 -43.7754 18.4759 31.2913 -45.2403 18.4759 30.4913 -45.24 
22.4699 26.4913 -45.4598 23.2687 26.4913 -45.504 23.2692 -0.00865 -45.4953 
33.6533 -0.00865 -46.0702 33.6528 26.4913 -46.0789 38.4454 30.4913 -46.3455 
34.4515 26.4913 -46.1231 35.4462 46.4973 -28.1572 23.4645 46.4973 -27.4939 
23.4644 55.4973 -27.4968 39.4399 55.4973 -28.3813 48.4263 46.4973 -28.8758 
48.4266 30.4973 -28.8706 39.4401 42.4973 -28.377 39.4403 30.4973 -28.3731 
24.7359 46.5048 -4.52906 20.7421 42.5048 -4.30664 20.7423 30.5049 -4.3027 
24.7362 26.5049 -4.52249 36.7179 26.5049 -5.18581 40.7117 30.5049 -5.40823 
36.7175 46.5048 -5.19239 40.7115 42.5048 -5.41218 19.1392 31.2953 -33.2586 
19.1391 41.6953 -33.262 -7.32023 31.2953 -31.7938 -7.32042 41.6953 -31.7972 
34.3161 26.4953 -34.0972 23.932 26.4953 -33.5224 34.3166 -0.0047 -34.0885 
23.9325 -0.0047 -33.5136 20.7421 42.5048 -4.30664 20.7423 30.5049 -4.3027 
24.7362 26.5049 -4.52249 36.7179 26.5049 -5.18581 -49.6197 26.4913 -41.4688 
-49.6192 -0.00865 -41.4601 -39.2351 -0.00865 -42.035 -39.2356 26.4913 -42.0437 
-38.4368 26.4913 -42.0879 -34.443 30.4913 -42.3103 -34.443 31.2913 -42.3106 
-7.98355 31.2913 -43.7754 -7.98374 41.6913 -43.7788 -34.4432 41.6913 -42.314 
-34.4432 42.4913 -42.3143 -38.4372 46.4913 -42.0945 -38.4374 55.4913 -42.0974 
-54.4129 55.4913 -41.213 -63.399 46.4913 -40.7126 -63.3987 30.4913 -40.7073 
-54.4124 30.4913 -41.2048 -50.4185 26.4913 -41.4246 -62.4037 30.4973 -22.7348 
-62.404 46.4973 -22.7401 -53.4179 55.4973 -23.2405 -37.4424 55.4973 -24.125 
-37.4422 46.4973 -24.122 -49.4239 46.4973 -23.4587 -53.4177 42.4973 -23.2362 
-53.4174 30.4973 -23.2323 -36.1708 46.5048 -1.15717 -32.1769 42.5048 -1.37697 
-32.1767 30.5049 -1.37302 -36.1705 26.5049 -1.1506 -48.1521 26.5049 -0.48728 
-52.1461 30.5049 -0.26748 -48.1525 46.5048 -0.49385 -52.1463 42.5048 -0.27143 
-33.7797 31.2953 -30.3289 -33.7799 41.6953 -30.3323 -7.32042 41.6953 -31.7972 
-7.32023 31.2953 -31.7938 -48.9564 26.4953 -29.4872 -38.5723 26.4953 -30.062 
-38.5718 -0.0047 -30.0533 -48.9559 -0.0047 -29.4784 -32.1769 42.5048 -1.37697 
-32.1767 30.5049 -1.37302 -36.1705 26.5049 -1.1506 -48.1521 26.5049 -0.48728 
33.6537 -26.5086 -46.0615 33.6533 -0.00865 -46.0702 23.2692 -0.00865 -45.4953 
23.2696 -26.5086 -45.4866 22.4709 -26.5086 -45.4424 18.4771 -30.5086 -45.2199 
18.4771 -31.3086 -45.2197 -7.98241 -31.3086 -43.7548 -7.98222 -41.7086 -43.7514 
18.4773 -41.7086 -45.2163 18.4773 -42.5086 -45.216 22.4712 -46.5086 -45.4358 
22.4714 -55.5086 -45.4328 38.4469 -55.5086 -46.3173 47.433 -46.5086 -46.8177 
47.4327 -30.5086 -46.823 38.4465 -30.5086 -46.3255 34.4525 -26.5086 -46.1057 
48.4277 -30.5027 -28.8505 48.428 -46.5027 -28.8452 39.4419 -55.5027 -28.3448 
23.4664 -55.5027 -27.4604 23.4662 -46.5027 -27.4633 35.4479 -46.5027 -28.1266 
39.4417 -42.5027 -28.3491 39.4415 -30.5027 -28.353 24.7376 -46.4951 -4.49848 
20.7436 -42.4951 -4.27869 20.7434 -30.4951 -4.28264 24.7372 -26.4951 -4.50506 
36.7189 -26.4951 -5.16838 40.7128 -30.4951 -5.38818 36.7192 -46.4951 -5.16181 
40.7131 -42.4951 -5.38423 19.1404 -31.3047 -33.238 19.1406 -41.7047 -33.2346 
-7.3189 -41.7047 -31.7698 -7.31909 -31.3047 -31.7732 34.3171 -26.5047 -34.0798 
23.933 -26.5047 -33.5049 23.9325 -0.0047 -33.5136 34.3166 -0.0047 -34.0885 
20.7436 -42.4951 -4.27869 20.7434 -30.4951 -4.28264 24.7372 -26.4951 -4.50506 
36.7189 -26.4951 -5.16838 -48.1512 -26.4951 -0.46985 -36.1695 -26.4951 -1.13317 
-32.1755 -30.4951 -1.35296 -32.1753 -42.4951 -1.34902 -38.4359 -26.5086 -42.0705 
-50.4175 -26.5086 -41.4072 -49.6187 -26.5086 -41.4514 -48.9554 -26.5047 -29.4697 
-38.5713 -26.5047 -30.0446 -39.2346 -26.5086 -42.0262 -34.4417 -42.5086 -42.2863 
-34.4419 -30.5086 -42.2903 -34.4419 -31.3086 -42.29 -33.7786 -31.3047 -30.3083 
-33.7784 -41.7047 -30.3049 -34.4417 -41.7086 -42.2866 -53.4161 -42.5027 -23.2083 
-53.4163 -30.5027 -23.2122 -49.4222 -46.5027 -23.4281 -37.4405 -46.5027 -24.0914 
-48.9559 -0.0047 -29.4784 -38.5718 -0.0047 -30.0533 -39.2351 -0.00865 -42.035 
-49.6192 -0.00865 -41.4601 -7.31909 -31.3047 -31.7732 -7.3189 -41.7047 -31.7698 
-7.98241 -31.3086 -43.7548 -7.98222 -41.7086 -43.7514 -37.4403 -55.5027 -24.0885 
-53.4159 -55.5027 -23.204 -62.4023 -46.5027 -22.7095 -62.4026 -30.5027 -22.7148 
-63.3976 -30.5086 -40.6872 -54.4113 -30.5086 -41.1847 -63.3973 -46.5086 -40.682 
-38.4355 -46.5086 -42.0639 -38.4353 -55.5086 -42.0609 -54.4109 -55.5086 -41.1765 
-47.9932 -46.1806 30.0746 -49.289 -45.3135 30.1461 -50.1548 -44.0158 30.1936 
-50.4589 -39.4851 30.2089 -50.4589 -36.4851 30.2079 -50.459 -33.4851 30.2069 
-50.4591 -27.4351 30.2049 -50.4591 -24.3851 30.2039 -50.4592 -21.3351 30.2029 
-50.4593 -18.2851 30.2019 -50.4593 -15.2351 30.2009 -50.4594 -12.1851 30.1999 
-50.4594 -9.1351 30.1989 -50.4595 -6.0851 30.1979 -50.4595 -3.0351 30.1969 
-50.4596 0.0149 30.1959 -50.4596 3.0649 30.1949 -50.4597 6.11489 30.1939 
-50.4598 9.16489 30.1929 -50.4598 12.2149 30.1919 -50.4599 15.2649 30.1909 
-50.4599 18.3149 30.1899 -50.46 21.3649 30.1889 -50.46 24.4149 30.1879 
-50.4601 27.4649 30.1869 -50.4602 33.5149 30.1849 -50.4603 36.5149 30.1839 
-50.4603 39.5149 30.1829 -50.1564 44.0456 30.1646 -49.2906 45.3433 30.1162 
-47.9949 46.2104 30.0442 -43.4711 46.5149 29.7937 -40.4757 46.5149 29.6278 
-37.4803 46.5149 29.462 -31.4396 46.5149 29.1276 -28.3942 46.5149 28.959 
-25.3489 46.5149 28.7904 -22.3035 46.5149 28.6218 -19.2582 46.5149 28.4532 
-16.2129 46.5149 28.2846 -13.1675 46.5149 28.116 -10.1222 46.5149 27.9474 
-7.07686 46.5149 27.7788 -4.03153 46.5149 27.6103 -0.98619 46.5149 27.4417 
2.05914 46.5149 27.2731 5.10448 46.5149 27.1045 8.14981 46.5149 26.9359 
11.1952 46.5149 26.7673 14.2405 46.5149 26.5987 17.2858 46.5149 26.4301 
20.3312 46.5149 26.2615 23.3765 46.5149 26.0929 29.4172 46.5149 25.7585 
32.4127 46.5149 25.5926 35.4081 46.5149 25.4268 39.9319 46.2104 25.1765 
41.2276 45.3433 25.105 42.0934 44.0456 25.0575 42.3975 39.5149 25.0422 
42.3975 36.5149 25.0432 42.3976 33.5149 25.0441 42.3977 27.4649 25.0461 
42.3978 24.4149 25.0471 42.3978 21.3649 25.0481 42.3979 18.3149 25.0491 
42.3979 15.2649 25.0501 42.398 12.2149 25.0511 42.398 9.16489 25.0522 
42.3981 6.11489 25.0532 42.3982 3.0649 25.0542 42.3982 0.0149 25.0552 
42.3983 -3.0351 25.0562 42.3983 -6.0851 25.0572 42.3984 -9.1351 25.0582 
42.3984 -12.1851 25.0592 42.3985 -15.2351 25.0602 42.3985 -18.2851 25.0612 
42.3986 -21.3351 25.0622 42.3987 -24.3851 25.0632 42.3987 -27.4351 25.0642 
42.3988 -33.4851 25.0662 42.3989 -36.4851 25.0672 42.3989 -39.4851 25.0681 
42.095 -44.0158 25.0865 41.2293 -45.3135 25.1348 39.9335 -46.1806 25.2069 
35.4098 -46.4851 25.4574 32.4143 -46.4851 25.6232 29.4189 -46.4851 25.789 
23.3782 -46.4851 26.1235 20.3328 -46.4851 26.2921 17.2875 -46.4851 26.4607 
14.2422 -46.4851 26.6293 11.1968 -46.4851 26.7978 8.15151 -46.4851 26.9664 
5.10617 -46.4851 27.135 2.06084 -46.4851 27.3036 -0.9845 -46.4851 27.4722 
-4.02984 -46.4851 27.6408 -7.07517 -46.4851 27.8094 -10.1205 -46.4851 27.978 
-13.1658 -46.4851 28.1466 -16.2112 -46.4851 28.3152 -19.2565 -46.4851 28.4838 
-22.3018 -46.4851 28.6524 -25.3472 -46.4851 28.821 -28.3925 -46.4851 28.9896 
-31.4379 -46.4851 29.1582 -37.4786 -46.4851 29.4926 -40.474 -46.4851 29.6584 
-43.4694 -46.4851 29.8243 26.0718 46.5128 19.6007 26.2468 46.5139 22.7625 
24.9017 46.5058 -1.53365 25.0676 46.5068 1.46176 25.2334 46.5078 4.45717 
25.3992 46.5088 7.45259 25.565 46.5098 10.448 25.7309 46.5108 13.4434 
27.7313 46.5048 -4.6949 30.7267 46.5048 -4.86073 33.7221 46.5048 -5.02656 
36.8834 46.5058 -2.19697 37.0492 46.5068 0.79844 37.215 46.5078 3.79385 
37.3809 46.5088 6.78926 37.5467 46.5098 9.78468 37.7125 46.5108 12.7801 
38.0534 46.5128 18.9373 38.2284 46.5139 22.0991 -34.835 46.5128 22.9725 
-34.6599 46.5139 26.1344 22.8514 46.5118 16.6074 19.806 46.5118 16.776 
16.7607 46.5118 16.9446 13.7154 46.5118 17.1132 10.67 46.5118 17.2818 
7.62468 46.5118 17.4504 4.57935 46.5118 17.619 1.53401 46.5118 17.7876 
-1.51132 46.5118 17.9562 -4.55666 46.5118 18.1248 -7.60199 46.5118 18.2934 
-10.6473 46.5118 18.462 -13.6927 46.5118 18.6306 -16.738 46.5118 18.7992 
[...]
CELL_DATA 12638
SCALARS cell_scalars float
LOOKUP_TABLE default
-7813.6 -7630.2 -7876 -7897 -7487.2 -7661 -7613.9 -7401.7 -7485.1 
-6824.7 -6977.4 -6233.1 -6497.6 -5766 -6209.4 -5784.6 -6706.1 -6558.9 
-7344 -7022.7 -7555.3 -7237.3 -7422.6 -6786.9 -6959.7 -6214.6 -6421 
-5751.2 -6171.5 -5871.7 -6540 -6490 -7192.6 -6991.1 -7446.8 -7193.8 
-7440.7 -6830.7 -6958.6 -6238.6 -6447.2 -5752.8 -6130.6 -5717.5 -6339.7 
-6384.9 -6988.4 -6881.4 -7358.9 -7157.8 -7445 -6838.1 -7001.4 -6244.3 
-6532.5 -5746.4 -6020.2 -5435.1 -6183.4 -6180.7 -6741.9 -6726.7 -7264.6 
-7128 -7653.7 -7658.7 -7373.4 -7624.8 -7574.2 -7215 -7511 -7187.8 
-7503.6 -7145.5 -7461.4 -7129.4 -7452.6 -7132.9 -7495.2 -7176.5 -7481.5 
-7147.8 -7479.9 -7176.9 -7480.9 -7165.7 -7473 -7160.3 -7477.9 -7160.6 
-7487.3 -7153.9 -7465.5 -7173.1 -7487.6 -7168.1 -7468.6 -7159.6 -7474.4 
-7154.9 -7472.7 -7153.1 -7472.5 -7137.8 -7460.8 -7156.9 -7462.8 -7136.3 
-7442.3 -7157.5 -7459.8 -7156.2 -7462.5 -7125.5 -7453.8 -7118.7 -7441.7 
-7089.5 -7424.1 -7078 -7400.7 -7075.5 -7403.2 -7083.8 -7450.3 -7184.2 
-7524.4 -7557.9 -7364.7 -7675.4 -7723.9 -7248.6 -7386.2 -6814.3 -6928.3 
-6268.9 -6214.9 -5665.3 -6105.4 -5684.7 -6321.4 -6183.2 -6878.9 -6763.1 
-7363.5 -7111 -7358.3 -6905.7 -7074.9 -6477 -6449.1 -5818.1 -6073.5 
-5626.7 -6327.8 -6129.5 -6871.4 -6734.8 -7362.5 -7190.8 -7515.1 -7003.8 
-7271.2 -6607.7 -6678 -6008.6 -6238.2 -5636.2 -6365.8 -6114.1 -6852.9 
-6716.1 -7359.3 -7245.2 -7587.3 -7046.7 -7363.6 -6663 -6830.8 -6008.5 
-6172 -5633 -6341.4 -6105.1 -6835.8 -6716.7 -7394.9 -7296.2 -7854.3 
-7856.7 -7606.4 -7864 -7758 -7523.2 -7655.9 -7418.3 -7572.1 -7422.3 
-7590.5 -7394.1 -7548.5 -7385.2 -7537.6 -7365.5 -7527.5 -7369.2 -7567.8 
-7400.3 -7554.7 -7381.7 -7570.7 -7393.9 -7591.4 -7385.6 -7555.8 -7392.5 
-7557.7 -7409.9 -7551 -7383.1 -7539.3 -7392 -7572.4 -7386.2 -7559 
-7385.3 -7549.8 -7399 -7543.4 -7384.6 -7549.7 -7392.2 -7527.2 -7392.3 
-7543.7 -7398.6 -7533.6 -7347.8 -7492.4 -7351.4 -7495.7 -7349.6 -7506.1 
-7378.2 -7523.5 -7396.4 -7549 -7425.4 -7382.7 -7216.9 -7234.9 -6978.9 
-7117.8 -6999.5 -6898.8 -6907.1 -6842.1 -6888.8 -6809.7 -6887.2 -7049.3 
-6985.1 -6557.5 -6687 -6375.3 -6651.9 -5866.1 -6057.2 -5520 -5609.1 
-5761.8 -5385 -6432.8 -6182.6 -6767.4 -6629.8 -6957.2 -6929.7 -6455.8 
-6733.7 -5887.8 -6156.2 -5460 -5661.5 -5568.1 -5285.9 -6346.4 -5996.7 
-6668 -6500.9 -6893.1 -6713.1 -6492.4 -6757.6 -5911.3 -6164.1 -5451 
-5682.2 -5452.9 -5309.8 -6236.2 -5846.2 -6647.6 -6420.4 -6834.4 -6664.4 
-6485.1 -6725.5 -5912.7 -6131.1 -5397.2 -5607.9 -5406.2 -5242.5 -6159.6 
-5687.1 -7239.7 -7070.9 -7268.2 -7028.3 -6930.2 -7062.5 -6842 -7097 
-6916.9 -7049.7 -6863.5 -7027.2 -6871.8 -7028.2 -6867.3 -7010.9 -6888.8 
-7042.5 -6902.2 -7016.6 -6909.1 -7044 -6912.8 -7016.1 -6907.1 -7044.9 
-6913 -7031.6 -6937.8 -7036.5 -6909.7 -7058.3 -6907 -7037.8 -6939.8 
-7043.4 -6925.4 -7058.2 -6941.3 -7060.6 -6929.2 -7075.9 -6925.6 -7084.2 
-6933.6 -7102.1 -6920.7 -7056.5 -6923.6 -7079.9 -6923.3 -7103.3 -6927.8 
-6873.8 -6783.4 -6820.2 -6730.3 -6838 -6691.2 -6879.8 -6744.8 -6903.9 
-6773.5 -6890.9 -6834.5 -6876.7 -6777.9 -6876 -6798.7 -6872.6 -6787.7 
-6881.1 -6771.3 -6909.4 -6775.7 -6897.3 -6801.6 -6903.5 -6787.2 -6922.8 
-6805.3 -6904.2 -6795.2 -6903.8 -6797.3 -6933.5 -6814.2 -6907 -6820.1 
-6946.2 -6822.7 -6953.3 -6835.9 -6925.4 -6814.3 -6928.5 -6811.3 -6885.7 
-6843.8 -6879 -6749.5 -6855.2 -6754.5 -6870.3 -6722.6 -6541.6 -6655.3 
-5913.7 -6218.7 -5151.5 -5504.4 -5520.5 -5265.6 -6001.8 -5720.6 -6606 
-6284.3 -6867.3 -6828.7 -6596.3 -6647.7 -6141.8 -6335 -5347.1 -5745.3 
-5521.8 -5368.3 -5999 -5750.4 -6562.2 -6248.1 -6908 -6828.2 -6682.7 
-6672 -6211.8 -6460.6 -5548.4 -5892.1 -5536.9 -5371.8 -5989.6 -5726.3 
-6536.4 -6250.9 -6979.4 -6822.2 -6734.4 -6860 -6396.8 -6564.8 -5746.6 
-6081.7 -5410.3 -5346.8 -5928 -5678.1 -6518.8 -6150.4 -6661.7 -6690.3 
-6816.3 -6656.6 -6757.6 -6361.2 -7175.4 -6631.8 -6486.2 -5936 -6205 
-6610.9 -6529.4 -6187.2 -6387.8 -5515.1 -5711.5 -5524.8 -5854.9 -6938.4 
-7040.2 -5493.9 -5382.6 -5188.4 -5107.8 -6257.4 -5876 -6717.3 -6439.5 
-6917.7 -6772.7 -6682.6 -6898.2 -6129.6 -6398.1 -5662.7 -5856.2 -5374.3 
-5379.7 -6025.4 -5705.3 -6534.4 -6329.9 -6784.3 -6693.8 -6713.4 -6898.1 
-6115.7 -6402.9 -5615.7 -5813.6 -5369.7 -5378 -5892.5 -5548.6 -6453.4 
-6226.2 -6685 -6666.3 -6654.1 -6815.5 -6099.8 -6386.9 -5568.3 -5759.7 
-5247.2 -5407.1 -5637.4 -5428.2 -6239.7 -5925.7 -6767.9 -6513.5 -6661.3 
-6807.8 -6347.5 -6594.5 -5753.5 -6169.1 -5218.4 -5370.8 -5701.5 -5448 
-6229.1 -5938.4 -6787.6 -6511.2 -6735.7 -6888.2 -6464.1 -6627.3 -5898.1 
-6231.1 -5417.2 -5565.4 -5701.2 -5434.2 -6207.3 -5911.2 -6768.4 -6472.4 
-6909.1 -6971.2 -6582.4 -6769.6 -6100.4 -6316 -5498.5 -5766.5 -5537.8 
-5449.4 -5782.7 -5347 -6089.5 -5781.5 -6516.5 -6396.4 -6519.4 -6338 
-6516.4 -6360.1 -6564.4 -6367.2 -6506.5 -6367.4 -6517.8 -6334.7 -6506.8 
-6331.1 -6503 -6355.9 -6525 -6366.9 -6512.2 -6364.6 -6542.9 -6375.6 
-6535.9 -6364.3 -6536 -6357.9 -6547.6 -6355.6 -6547.4 -6377.9 -6555.4 
-6378.1 -6553.5 -6380.3 -6572.9 -6380.8 -6586.7 -6414.4 -6577.7 -6416.8 
-6573 -6395.9 -6600.6 -6400 -6605.9 -6444.1 -6567.1 -6412.8 -6563.4 
-6503.1 -6532 -6437.4 -6649.1 -6504 -6527.2 -6482.7 -6628.8 -6461.3 
-6678.4 -6517.2 -6637.5 -6558.8 -6669.6 -6548.9 -6656.7 -6537.1 -6657.4 
-6544.5 -6680.6 -6562.5 -6663.7 -6562.9 -6651.9 -6573.3 -6665.6 -6592.5 
-6658 -6593.4 -6683.3 -6554.1 -6688.7 -6560.4 -6660.1 -6558.9 -6637 
-6553.4 -6576.6 -6481.7 -6577.5 -6447.4 -6620.4 -6522.5 -6638.7 -6545.7 
-6683.7 -6570.9 -6627.4 -6550.3 -6318.8 -6140.6 -6906.3 -6953.5 -6727 
-6277.4 -6528.5 -6570.5 -6576.5 -6310.3 -6034.8 -6182 -5854.8 -6114.1 
-6299.1 -6144.8 -5212.1 -5588.9 -5713.1 -5912.3 -6077.8 -5871.3 -5477.7 
-5443.2 -5790.5 -5588.9 -5386.8 -5257.1 -6067.8 -5920.6 -6264 -6121.9 
-6398.2 -6115.2 -5897.9 -5616.2 -6421.1 -6618 -6770.5 -6580.1 -6916.2 
-6892.8 -6388.6 -6671.7 -5793.5 -6055.6 -5324.6 -5562.8 -5866.1 -5493.6 
-6379.2 -6086.6 -6726.9 -6615.7 -6896.3 -6838.3 -6358.2 -6677.5 -5743.4 
-6081.3 -5322.6 -5538 -5654.3 -5306.9 -6308.5 -5982.4 -6672.3 -6489.7 
-6844.5 -6692.2 -6417 -6722.5 -5765.9 -6103.3 -5310 -5548.5 -5206.7 
-5227.2 -6499.5 -6203.3 -6821.8 -6731.8 -6632.3 -6706.4 -6177 -6414.6 
-5588.2 -5851.9 -5345.1 -5329.4 -5876.4 -5598.4 -6474.6 -6165.4 -6911.8 
-6733.8 -6683.1 -6813.1 -6308.2 -6528 -5715.7 -5988.9 -5415.5 -5349 
-5859.3 -5598.7 -6444.8 -6151.6 -6961 -6784.5 -6709.8 -6847.4 -6384.6 
-6552 -5776.4 -6045.5 -5514.9 -5553.3 -5808.5 -5612 -6012.5 -5923.7 
-6073.5 -5888.9 -6047.9 -5902.4 -6003.9 -5905.2 -5992.4 -5900.6 -6014.9 
-5864.5 -6034.8 -5859.8 -6037.3 -5863.5 -6046.8 -5884 -6054.4 -5869.2 
-6076.4 -5891.5 -6081.6 -5930.3 -6088 -5974.9 -6109.6 -5971.7 -6128.2 
-5972.8 -6134.6 -5962.3 -6126.7 -5956.1 -6090.9 -5966.7 -6103.9 -5949.1 
-6090.3 -5931.5 -6113.2 -5926.2 -6216.9 -6138 -6367.5 -6100.7 -6159.4 
-6073.6 -6245.6 -6033.4 -6218.1 -6085.9 -6211 -6088 -6221.1 -6083 
-6275.3 -6096.6 -6247.8 -6072.6 -6285 -6122.1 -6266.9 -6046 -6240.7 
-6117 -6240.3 -6060.8 -6192.3 -6031.8 -6234.4 -6031.4 -6224.9 -6089.5 
-6339.4 -6170.2 -6323.8 -6264.9 -6321.3 -6196.2 -6286.4 -6120.5 -6313.1 
-6113 -6242.7 -6082.3 -6651.9 -6492.3 -6214.2 -6339.1 -6191.9 -6012.4 
-6066.6 -5964.2 -5893.2 -5629 -5525.3 -5669.6 -5798.6 -5584.1 -5543.8 
-5798.8 -5875.5 -5490.1 -5651.6 -5704.6 -5522.1 -5427.1 -6274.7 -5973.9 
-6674.7 -6483.9 -5306.2 -5210.8 -5700.7 -5398.6 -6259.3 -5931.5 -5397 
-5389.9 -5787.6 -5626.5 -5178.9 -5210.5 -5641.8 -5616.5 -5868.1 -5680.2 
-6077.4 -5772.8 -5574.1 -5334.6 -5621 -5558.6 -6887.2 -6737.2 -6785.7 
-6538.2 -5652.3 -5609.2 -5773 -5475.6 -5753.3 -5633.9 -5858 -5591.2 
-5915.2 -5702.5 -5838.4 -5687.1 -5763.4 -5573.4 -5705.9 -5497.6 -5669.4 
-5521.8 -5634 -5501.4 -5622.5 -5462.6 -5613.1 -5471.3 -5600.6 -5472 
-5699.7 -5363.9 -5594.7 -5349.1 -5666.7 -5560.2 -5627.7 -5521.5 -5630.4 
-5535.9 -5627.2 -5524.9 -5677.3 -5579.4 -5677.3 -5533.1 -5678 -5559.1 
-5720.9 -5528.1 -5752.1 -5601.3 -5733.7 -5633 -5769.7 -5677.6 -5710.8 
-5606.4 -5696.1 -5658.1 -5689.6 -5667.8 -5715.1 -5608.9 -6078.5 -5780 
-6661.9 -6336.8 -6655.6 -6834.8 -6408.3 -6575.4 -5779.2 -6130.7 -5372.4 
-5447.5 -5640.2 -5484 -6136.2 -5885.6 -6698.8 -6413.2 -6808.7 -6895.7 
-6557.7 -6677.7 -6018.5 -6272 -5468.2 -5666 -5548.4 -5417.7 -6072.3 
-5835.4 -6655.8 -6367.4 -6565.9 -6297.7 -6889.6 -6725.4 -6806.8 -7008.6 
-6249.3 -6506.1 -5696.6 -5973.7 -5337.9 -5576.2 -5925.1 -5454.1 -6525.4 
-6247.8 -6775.1 -6666.5 -6744.3 -6896.9 -6174.2 -6507.8 -5651.9 -5910.3 
-5339.8 -5414.7 -5696.4 -5277.1 -6314.9 -6002 -6620.6 -6491.4 -5696.8 
-5459.9 -5680.9 -5682.1 -5748.2 -5505.6 -5630.7 -5541.3 -5765.4 -5421 
-5635.1 -5593.9 -5734.2 -5645.3 -5669.6 -5544 -6916.6 -6773 -5548.7 
-5532.7 -5249.3 -5323.3 -5466.2 -5482.4 -5502.8 -5563.3 -5764.9 -5457.6 
-5155.9 -5273.8 -5357.1 -5421.9 -6007.8 -5652.1 -6538.4 -6326.5 -6682 
-5495.4 -5346.1 -5975.1 -5681.9 -6564.6 -6247.6 -5370.1 -5483.7 -5383.8 
-5258.1 -5501.4 -5437.9 -5366.5 -5583.1 -5498.6 -5624.3 -5457.3 -5602.8 
-5469.3 -5727.6 -5478.4 -5636.9 -5446.5 -5712.5 -5482.2 -5606.7 -5406.2 
-5653.8 -5445.8 -5578.5 -5318.4 -5566.5 -5320.6 -5542.1 -5470.1 -5557.5 
-5515.9 -5402.9 -5411.2 -5478 -5413.8 -5397.5 -5485.3 -5436.9 -5387 
-5516.5 -5351.9 -5303.3 -5288.9 -5359 -5180.1 -5201.8 -5255.3 -5269 
-5146.6 -5308.2 -5246 -5202.3 -5152.9 -5116.1 -5144 -5149.2 -5096.1 
-5201 -5150.3 -5171.6 -5226.6 -5198.2 -5324.2 -5259 -5374.4 -5331.5 
-5444.9 -5376 -5142.1 -5330.5 -5100.6 -5231.8 -5273.9 -5242.5 -5307.7 
-5105 -5750 -5453.6 -6382.8 -6112.5 -6883.4 -6696.5 -6658.6 -6725 
-6260.8 -6532.8 -5678.7 -6070.8 -5295.1 -5197.6 -5760.1 -5493.1 -6375.5 
-6051.6 -6876.4 -6678.4 -6684.4 -6819 -6332.8 -6552.9 -5643.2 -6060.5 
-5475.2 -5505.7 -5861.1 -5644.8 -6387.7 -6101.8 -6283.9 -5977.3 -6666.3 
-6486.4 -6961 -6814.8 -6460.8 -6776.7 -5881.7 -6180.1 -5401.4 -5627.9 
-5451.4 -5149.5 -6136.5 -5930.5 -6603 -6406.3 -6905.2 -6720.6 -6563.7 
-6821.9 -5976 -6228 -5498 -5670.6 -5505.4 -5391 -6194.5 -5845.5 
-6620.6 -6397.9 -5306 -5752.9 -5313.4 -5460 -5377.1 -5645.2 -5543.9 
-5862.3 -6792.8 -6820.1 -6687.5 -6662.1 -6901.7 -6772.3 -6912.5 -5879.8 
-5980.7 -6245.7 -5427.1 -5462.1 -5760.3 -6276.9 -5987.4 -5907.3 -6122.1 
-6077.1 -6163.8 -6004.1 -6206.5 -6051.7 -6182.3 -5972 -6169.2 -6042.5 
-6195.9 -6019.5 -6153.8 -6007.8 -6105 -5930.7 -6077 -5866 -6077.7 
-5796.6 -5977.8 -5801.6 -5967.4 -6033.5 -6107.3 -5904.3 -6135.7 -5749.2 
-6009.9 -5762.3 -6018.4 -5904.6 -6094.4 -5467.4 -5556.6 -5472 -5646.4 
-5476.5 -5590.1 -5503.5 -5604.3 -5509.5 -5636 -5474.6 -5690.8 -5515.6 
-5677.5 -5534.2 -5657.1 -5520.3 -5671 -5484.4 -5666 -5527.9 -5646.6 
-5462.9 -5554.1 -5352.7 -5536.2 -5406.3 -5500 -5440.2 -5518.6 -5365.5 
-5553 -5466.6 -5541.4 -6081.1 -5796.2 -6692.5 -6341.3 -6676 -6840.3 
-6420.3 -6617.1 -5913.1 -6134.1 -5169.8 -5470.2 -5557.7 -5391.5 -6069.7 
-5811.9 -6641.8 -6339.4 -6845.2 -6880.8 -6638.4 -6740.7 -6096 -6419 
-5469.3 -5829.2 -5530.2 -5365.3 -6049.5 -5729.8 -6632.5 -6396.5 -6122.9 
-6838 -6727.1 -6795.2 -6969.4 -6247.9 -6534.1 -5703.3 -5967.9 -5299.2 
-5531.3 -5926.3 -5535.5 -6511.1 -6293.7 -6788.2 -6725.6 -6763.3 -6917.1 
-6188.2 -6490.4 -5660.9 -5903.3 -5337.2 -5407.3 -5784.8 -5519 -6344.2 
-6108.3 -5934.9 -6051.6 -5513.3 -5746.7 -6691.4 -6530.9 -6452.4 -6587.3 
-6554 -6426.1 -6699.9 -6422.8 -6524.3 -5867.5 -6049.4 -6344 -6486.1 
-6849.2 -6598.2 -6695.8 -6816.8 -6593.5 -6405.4 -6425.3 -6430.3 -6606.7 
-6268.1 -6526.1 -6424.4 -6428 -6474.5 -6568.9 -6464 -6597.1 -6436.9 
-6603.2 -6375.9 -6566 -6361.8 -6559.5 -6410.9 -6513.8 -6357.8 -6517 
-6332.5 -6619.2 -6948.8 -6868 -6374.9 -6523.1 -6407 -6561.1 -6439.6 
-6543.2 -6329.2 -6029.2 -5808.8 -6060.5 -5802.1 -5955.4 -5837.6 -5972.9 
-5839.2 -5983.2 -5880.1 -6006 -5830.4 -6054.2 -5860.2 -6018.6 -5876.9 
-6007.5 -5893.3 -6012.4 -5899.7 -6047.8 -5912.5 -6012.2 -5921.5 -6026.6 
-5901.4 -6059.3 -5972.4 -6101.5 -5961.6 -6143.6 -5938.1 -6161.8 -6848.1 
-6639.7 -6683 -6684.3 -6247.9 -6534.4 -5693.1 -6068.1 -5366.3 -5297.2 
-5798.7 -5547.9 -6361.6 -6066.2 -6842.8 -6663.9 -6686.4 -6820.8 -6320.1 
-6547.7 -5702.9 -5991.4 -5457.5 -5379.6 -5765.8 -5594.3 -6953.6 -6805 
-6523 -6793.1 -5918.6 -6205.9 -5474.1 -5663.2 -5423.5 -5406.9 -6210 
-5816 -6602 -6385.4 -6901.7 -6702.3 -6562.7 -6853.2 -5969.2 -6287.7 
-5504 -5724 -5450.5 -5387.6 -5973 -5658.2 -6546.5 -6855.7 -6047.2 
-6706.9 -6834.1 -6661.9 -6759.7 -6606.5 -6679.7 -6823.1 -6742.9 -6638.4 
-6393.1 -6381.1 -6644.2 -6342.2 -6874.9 -6942.3 -6284 -6571.6 -5990.9 
-6688.4 -6825.4 -6804.4 -6867.1 -6512.5 -6651.5 -6278.2 -6786.4 -6950.3 
-6298 -6486.3 -6316.5 -6474.4 -6342.8 -6491.4 -6344.6 -6480.6 -6410.5 
-6554.1 -6423.1 -6594.3 -6423.3 -6610.7 -6390.6 -6597.6 -6375.8 -6582.7 
-6373.5 -6576.5 -6364.8 -6574 -6409.8 -6557.4 -6413.6 -6571.7 -6482.3 
-6632.2 -6498.3 -6634.6 -5953.7 -6264.2 -5351.4 -5628.8 -5495.4 -5380.3 
-5987.7 -5679.6 -6620.3 -6311.2 -6881.5 -6885.6 -6585.7 -6727.3 -6104.4 
-6399.4 -5446.6 -5821.3 -5527.9 -5354.6 -6202.8 -6504.3 -5717.8 -5932.9 
-5399 -5540.8 -5909.5 -5597.9 -6386.1 -6218.6 -6779.9 -6606.7 -6848.8 
-6936.2 -6250 -6554.2 -5678.7 -5944 -5222.6 -5486.1 -5804.4 -5334.3 
-6683.4 -6710.5 -6769.2 -6802.9 -6638.6 -6755.6 -6711.5 -6735.6 -6741.3 
-6775.7 -6745.9 -6782.8 -6738.2 -6778.2 -6758.5 -6791.1 -6769.4 -6838.4 
-6755.8 -6869.9 -6772.5 -6814.5 -6740.4 -6803.4 -6362.4 -6967.2 -6904 
-6883 -6955.5 -6828.9 -6812.5 -6618.5 -6678.4 -6688.4 -6600.1 -6848.2 
-6504.2 -6743.2 -6256.1 -6374.9 -6762.2 -6846.9 -5950.2 -6239.1 -6765.4 
-6868.4 -5617.7 -6001.8 -5494.3 -5754.6 -6810.6 -6868 -6926.2 -6909.5 
-6821.4 -6872.7 -6842.3 -6866.8 -6862.6 -6892.9 -6839.2 -6883.9 -6879.8 
-6864 -6862.1 -6875.9 -6856.2 -6842.7 -6857.2 -6825 -6860.8 -6842.3 
-6865.6 -6816.8 -5767.8 -5982.5 -6552 -6314.8 -6963.4 -6785.9 -6836.3 
-6757.8 -6883.3 -6812.1 -5358.9 -5347.6 -5779.1 -5554.9 -6335.5 -6040.7 
-6899.1 -6624.9 -6769.4 -6911.9 -6459.4 -6643.8 -5903.1 -6205.6 -5384.3 
-5688.7 -5471.6 -5432.5 -6212 -5874.4 -6589.7 -6392.5 -6870.3 -6723 
-6577 -6837.4 -5995.9 -6303 -5519.2 -5763.3 -5144.4 -5341.7 -6070.5 
-6364.3 -6650.9 -6572.9 -6963 -6978.6 -6942.8 -6944.8 -6917.2 -6920.3 
-6919.9 -6896.6 -6898.5 -6902 -6923.9 -6893.5 -6900 -6892.8 -6976.7 
-6915.2 -6998.3 -6955.5 -6970.2 -6907 -6732.6 -6778.9 -6735.7 -6675.2 
-6738.6 -6355.4 -6505.5 -6100.8 -6856.3 -6713.8 -6811.8 -6508.4 -6651.6 
-5942.1 -6304.1 -5625.3 -6712.5 -6612 -6110.8 -6273.8 -5816.6 -5477.4 
-5721.8 -6239.4 -5854.1 -6775.2 -6459.7 -6950.7 -6987.5 -6928.9 -6942.9 
-6734.9 -6548.4 -6701 -6550.4 -6662.9 -6517.7 -6650.8 -6481.9 -6653.9 
-6500.9 -6650.7 -6495.6 -6659.3 -6520.8 -6630.8 -6505.1 -6689.4 -6492.3 
-6618.3 -6488.2 -5285.6 -5776.2 -5458.7 -5261.2 -5967.7 -5671.4 -6601.8 
-6257.1 -6824.9 -6790 -6541.3 -6667.3 -6084.6 -6328.5 -5495.3 -5727.6 
-5403.3 -5573.3 -5761.8 -5390.6 -6472 -6059.2 -6802.9 -6679.6 -6827.8 
-6933.6 -6290.4 -6567.7 -5747 -5990.2 -5441.7 -5497.3 -6694.6 -6676.6 
-6673.8 -6668.6 -6618.1 -6624.7 -6697.2 -6601.9 -6668.9 -6635.6 -6675.7 
-6637.6 -6706.5 -6658.6 -6696 -6668.4 -6709.8 -6668.8 -6684.3 -6647.3 
-6686 -6655.9 -6581.2 -6445.4 -5769.1 -6169.2 -6604.4 -6685.6 -6641.7 
-6330.5 -6432.4 -6461.6 -6737.8 -6732.9 -6443.5 -6490.8 -5949.9 -6178.1 
-5773.5 -5933.2 -5459.4 -6231.7 -6022.6 -5716.8 -5593.1 -5782.7 -5498.2 
-6197.8 -6051.2 -6211 -6018.4 -6227.4 -6046.3 -6260.7 -6118.8 -6245.5 
-6076.9 -6227.9 -6062.5 -6227.8 -6082.7 -6178.4 -6078.2 -6136 -6017.2 
-5365.7 -5389.8 -6444.4 -6359.8 -6570.3 -6378.3 -6528.1 -6417.9 -6446.1 
-6375.5 -6464.4 -6327.4 -6458.4 -6341.2 -6428.9 -6306.1 -6409.6 -6317.2 
-6451.1 -6294.9 -6461.7 -6317 -5707.9 -5522.6 -6230.7 -5919.2 -6766.9 
-6516.3 -6749.5 -6899.6 -6492.5 -6665.5 -5974.7 -6254.9 -5478.9 -5361.1 
-5507.4 -6170.6 -5912.1 -6562.5 -6420 -6891.6 -6731.9 -6645 -6872.7 
-6052.7 -6341.5 -5487.2 -5826.9 -5711.5 -6220.7 -6070.7 -6469.1 -6302.1 
-5997.6 -5952.2 -6104.8 -5757.6 -5591.3 -5399.1 -5393 -5960.5 -5695.4 
-6442.9 -6283.1 -5394 -5791.9 -6158.7 -5846.8 -6044.4 -5890 -6713.2 
-6673.5 -6076.3 -5784 -5696.7 -5965.5 -5426.1 -5513.1 -5496.1 -5772.4 
-5630.1 -5388.9 -5719.3 -5334.1 -5944.8 -5624.8 -6013.1 -5800.3 -6146.6 
-5910.7 -6095.3 -5893.8 -6100.5 -5915.6 -6075.4 -5891.8 -6863.8 -6856.4 
-6297.6 -6621.9 -5722.5 -6023.2 -5770 -5611.4 -5732.9 -5561.7 -5764.3 
-5578.5 -5801.1 -5638.7 -5778.7 -5664 -5740.6 -5640.9 -5453.1 -5280.3 
-5983 -5721.8 -6566.5 -6266.7 -6902.9 -6831 -6642.4 -6768 -6257.3 
-6497.8 -5771.4 -5218.1 -5269.4 -5370.9 -5590.2 -5664.3 -5438.4 -5400.7 
-5292.3 -5513.6 -5343.5 -5293.5 -5405 -5237.6 -5169.2 -5179.6 -5526.3 
-5376.4 -5393.3 -5461.9 -5851 -5716.1 -6394.6 -6226.5 -6614.9 -5518.3 
-5348.1 -5911 -5641.8 -5462.4 -5519.8 -5374.5 -5358.5 -5271.3 -5349.7 
-5189.2 -5504.7 -5424.7 -5459.3 -5467.2 -5349 -5290 -5425.1 -5307.9 
-5382.2 -5389 -6151.2 -5902.7 -6813.8 -6520.1 -6763.6 -6880 -6499.9 
-6665 -6840.7 -6688.9 -6672 -6897.3 -6099.2 -6394.5 -5802.1 -5595.9 
-5332.7 -5449 -5953.8 -5710.1 -5386.4 -5340.4 -5272.2 -5586.6 -5451 
-5875.9 -6424.8 -6234.5 -6709.1 -6590.7 -5289.2 -5514.7 -5395.2 -5594.1 
-5854.5 -6524.6 -6279.8 -5648.6 -5880.4 -5425.6 -5747.7 -6910.9 -6815.1 
-6926 -6793 -5545.3 -5672.3 -5513.4 -5746.2 -5473.5 -5167.6 -5507.7 
-6653.4 -6813.4 -5874.1 -6261 -6458 -6764.3 -5441.6 -5571.6 -5529.8 
-5441.9 -5495.2 -5433.2 -5369.5 -5691.5 -6161.1 -5957 -5754.1 -6202.9 
-5868.7 -5759.9 -6510.6 -6328.5 -6331.4 -6170.2 -6673 -6619 -6813.1 
-5486.6 -5345.3 -5676.1 -5348.9 -5454.5 -6154.6 -6298 -6171.7 -6318.5 
-6060.9 -6249.7 -6106.9 -6216.2 -6256 -5921.1 -6819.4 -6497.3 -6843.9 
-6948.1 -6821.4 -6915.3 -5737.3 -5650.5 -6173.6 -5470 -6674.6 -6585.2 
-6849 -6011.3 -5984.7 -6282.5 -6581.5 -5932.5 -5722.8 -6624.6 -6419.3 
-6762.1 -5777.8 -5883.3 -5851.3 -6559 -6644.4 -6572.6 -6655.3 -6517.6 
-6261.7 -6952.8 -6805.9 -6593.9 -6212.9 -6706.2 -6812.7 -6788.3 -6898.8 
-6890.9 -6778.2 -6911 -6863.3 -6580.8 -6802 -6266.4 -6177.4 -6418.4 
-6423.2 -6713.6 -6783.6 -6669.9 -6865.6 -6741 -6783.2 -6993.8 -7543.8 
-7459.4 -7502.7 -7650.2 -7780.3 -7748.7 -7789.9 -7867.8 -7905.1 -7898.8 
-7932.2 -7973.3 -7978.5 -7989.2 -8018.1 -8036.3 -8039 -8051.4 -8069.6 
-8078.3 -8078.7 -8090.4 -8101.2 -8136.1 -8119.2 -8107.1 -8129 -8149.1 
-8108.2 -8109.6 -8103.1 -8135.2 -7891.5 -7858.5 -7747.7 -7692.7 -7658.6 
-8158.3 -8274.5 -7732.3 -8204.1 -8467.6 -7847.9 -8227.5 -8597.1 -7913.8 
-8238 -8704.2 -7929.5 -8253.6 -8784.8 -7811.7 -8244 -8721.6 -7716.9 
-8252.2 -8611.3 -7706.7 -8231.5 -8509.4 -7765.5 -8237.4 -8570.4 -7871.3 
-8229.7 -8622.6 -7971 -8239.2 -8721.3 -8023.6 -8247.7 -8783.4 -7917.4 
-8241.2 -8708.7 -7789.4 -8253.8 -8622.7 -7759.2 -8238.8 -8498 -7802.7 
-8251.6 -8495.3 -7906.4 -8251.1 -8591.3 -7979.1 -8271.4 -8688.5 -8030.5 
-8267.7 -8771.9 -8000.7 -8244.3 -8566.7 17535 23674 27829 29480 
-1737.4 1946.1 5059.2 6165.9 -7379.7 -6930.6 -6343.6 -6050.2 -7873.2 
-7750.2 -7700.2 -7736.3 -8032.3 -7982.3 -7977.7 -8027.3 -8124.4 -8106.6 
-8117.1 -8154.8 -8207.4 -8183.4 -8205.5 -8231.2 -8241.5 -8230.9 -8237.9 
-8281.9 -8228.8 -8221.6 -8250.1 -8273.1 -7864.5 -7820.2 -7832.1 -7965.7 
-7933.7 -8126.6 -8146.2 -7968.3 -8131 -8107.8 -8018.9 -8135.5 -8112.6 
-8001.6 -8159.2 -8114.7 -8179.7 -8347.6 -8312.1 -8222 -8365.1 -8346.8 
-8240.7 -8385.3 -8376.6 -8120.5 -8404.4 -8460.9 -5387.9 -4938.9 -4937.6 
-5377.4 -7398.6 -7265.9 -7262.2 -7385.6 -7715.3 -7663.7 -7654.7 -7695.1 
-7849.7 -7818.2 -7807.1 -7814.7 -7867.4 -7847.3 -7840.9 -7846.6 -7971.8 
-7960.6 -7955 -7958.2 -8090.9 -8068.5 -8063.4 -8070.6 -8146 -8118.9 
-8114.7 -8127 -8086.2 -8074.2 -8072.7 -8087.2 -7949.5 -7938.5 -7936.6 
-7926.7 54891 56126 56154 55032 31007 32316 32371 31262 
9081.6 10886 10941 9204.4 -6610.1 -6211.6 -6205.3 -6587.3 -7985.8 
-7894.7 -7896.3 -7994.4 -8291.9 -8268.1 -8270.4 -8302.2 -8584 -8622.1 
-8624.1 -8583.4 -8379 -8355.6 -8358.3 -8390.1 -8407.5 -8393.7 -8394.1 
-8402.5 -8104.9 -8079.1 -8092.5 -8081.2 -7950.9 -8113.2 -8278.4 -7959 
-8153.4 -8504.4 -7963 -8181 -8569.8 -7972.2 -8194 -8590.4 -7970.8 
-8198.4 -8584.3 -7977.5 -8201.8 -8581 -7984.7 -8205.2 -8563.7 -7978.4 