# vtk DataFile Version 4.2
vtk output
ASCII
DATASET UNSTRUCTURED_GRID
POINTS 8741 float
-49.8899 -42.4623 30.8832 -49.8904 -30.4623 30.8732 -49.8926 30.5377 30.8223 
-49.893 42.5377 30.8123 -45.897 46.5377 30.635 -33.9083 46.5377 30.113 
27.0339 46.5377 27.4595 39.0226 46.5377 26.9375 43.0189 42.5377 26.7669 
43.0194 30.5377 26.7769 43.0216 -30.4623 26.8277 43.022 -42.4623 26.8377 
39.0259 -46.4623 27.0151 27.0373 -46.4623 27.5371 -45.8936 -46.4623 30.7125 
-33.9049 -46.4623 30.1905 26.6207 46.5297 17.9685 25.7072 46.5122 -3.01159 
37.6958 46.5122 -3.53359 38.6093 46.5297 17.4465 -34.3216 46.5297 20.622 
-46.3102 46.5297 21.144 -47.2237 46.5122 0.16389 -35.2351 46.5122 -0.35811 
42.6057 42.5297 17.2759 -50.3063 42.5297 21.3213 41.6922 42.5122 -3.70426 
41.6926 30.5122 -3.69425 42.6061 30.5298 17.2859 -50.3059 30.5298 21.3313 
-51.2193 30.5122 0.35123 -51.2198 42.5122 0.34122 42.6083 -30.4702 17.3367 
-50.3036 -30.4702 21.3822 41.6948 -30.4877 -3.6434 41.6953 -42.4877 -3.6334 
42.6088 -42.4702 17.3467 -50.3032 -42.4702 21.3922 -51.2167 -42.4877 0.41208 
-51.2171 -30.4877 0.40208 38.6127 -46.4702 17.524 -46.3068 -46.4702 21.2215 
37.6992 -46.4877 -3.45607 25.7106 -46.4877 -2.93407 26.6241 -46.4702 18.046 
-34.3182 -46.4702 20.6995 -35.2317 -46.4877 -0.28058 -47.2203 -46.4877 0.24141 
-34.3189 -26.4702 20.6829 -30.3226 -30.4702 20.5122 -30.3221 -42.4702 20.5222 
22.6277 -42.4702 18.2167 22.6273 -30.4702 18.2067 26.6233 -26.4702 18.0294 
38.612 -26.4702 17.5074 38.61 26.5298 17.4632 26.6214 26.5298 17.9852 
22.625 30.5298 18.1559 22.6246 42.5297 18.1458 -30.3252 42.5297 20.4513 
-30.3248 30.5298 20.4613 -34.3209 26.5298 20.6387 -46.3095 26.5298 21.1607 
-46.3076 -26.4702 21.2049 48.9006 30.478 -45.0469 48.9 46.478 -45.0602 
39.9082 55.478 -44.6763 23.9234 55.478 -43.9803 23.9237 46.478 -43.9728 
19.9276 42.478 -43.7954 19.9277 41.678 -43.7948 -6.54726 41.678 -42.642 
-6.54688 31.278 -42.6334 19.928 31.278 -43.7861 19.9281 30.478 -43.7854 
23.9244 26.478 -43.9561 24.7237 26.478 -43.9909 24.7246 -0.02197 -43.9688 
35.1148 -0.02197 -44.4212 35.1138 26.478 -44.4433 39.9091 30.478 -44.6554 
35.9131 26.478 -44.4781 36.6953 46.493 -26.5118 24.7067 46.493 -25.9898 
24.7064 55.493 -25.9973 40.6912 55.493 -26.6933 49.683 46.493 -27.0773 
49.6836 30.493 -27.064 40.6917 42.493 -26.6825 40.6921 30.493 -26.6725 
25.7072 46.5122 -3.01159 21.7111 42.5122 -2.83426 21.7115 30.5122 -2.82426 
25.7079 26.5122 -2.99492 37.6965 26.5122 -3.51692 41.6926 30.5122 -3.69425 
37.6958 46.5122 -3.53359 41.6922 42.5122 -3.70426 20.45 31.288 -31.7974 
20.4496 41.688 -31.8061 -6.02489 31.288 -30.6447 -6.02526 41.688 -30.6534 
35.6358 26.488 -32.4547 25.2457 26.488 -32.0023 35.6368 -0.01196 -32.4326 
25.2466 -0.01196 -31.9802 21.7111 42.5122 -2.83426 21.7115 30.5122 -2.82426 
25.7079 26.5122 -2.99492 37.6965 26.5122 -3.51692 -48.2072 26.478 -40.8154 
-48.2063 -0.02197 -40.7933 -37.8161 -0.02197 -41.2457 -37.8171 26.478 -41.2678 
-37.0178 26.478 -41.3026 -33.0218 30.478 -41.4799 -33.0218 31.278 -41.4806 
-6.54688 31.278 -42.6334 -6.54726 41.678 -42.642 -33.0222 41.678 -41.4893 
-33.0222 42.478 -41.4899 -37.0186 46.478 -41.3193 -37.0189 55.478 -41.3268 
-53.0037 55.478 -40.6308 -61.9949 46.478 -40.2318 -61.9943 30.478 -40.2184 
-53.0028 30.478 -40.6099 -49.0065 26.478 -40.7806 -61.2113 30.493 -22.2355 
-61.2119 46.493 -22.2488 -52.2207 55.493 -22.6478 -36.2359 55.493 -23.3438 
-36.2356 46.493 -23.3363 -48.2242 46.493 -22.8143 -52.2203 42.493 -22.637 
-52.2198 30.493 -22.627 -35.2351 46.5122 -0.35811 -31.2387 42.5122 -0.52877 
-31.2383 30.5122 -0.51877 -35.2343 26.5122 -0.34144 -47.223 26.5122 0.18056 
-51.2193 30.5122 0.35123 -47.2237 46.5122 0.16389 -51.2198 42.5122 0.34122 
-32.4998 31.288 -29.492 -32.5002 41.688 -29.5006 -6.02526 41.688 -30.6534 
-6.02489 31.288 -30.6447 -47.6852 26.488 -28.8268 -37.2951 26.488 -29.2792 
-37.2941 -0.01196 -29.2571 -47.6843 -0.01196 -28.8047 -31.2387 42.5122 -0.52877 
-31.2383 30.5122 -0.51877 -35.2343 26.5122 -0.34144 -47.223 26.5122 0.18056 
35.1157 -26.5219 -44.3991 35.1148 -0.02197 -44.4212 24.7246 -0.02197 -43.9688 
24.7256 -26.5219 -43.9467 23.9263 -26.5219 -43.9119 19.9303 -30.5219 -43.7346 
19.9303 -31.322 -43.7339 -6.54461 -31.322 -42.5812 -6.54423 -41.722 -42.5725 
19.9307 -41.722 -43.7252 19.9307 -42.5219 -43.7246 23.9271 -46.5219 -43.8952 
23.9274 -55.5219 -43.8877 39.9123 -55.5219 -44.5837 48.9034 -46.5219 -44.9827 
48.9028 -30.5219 -44.9961 39.9113 -30.5219 -44.6046 35.915 -26.5219 -44.4339 
49.6858 -30.5069 -27.0131 49.6864 -46.5069 -26.9998 40.6952 -55.5069 -26.6008 
24.7104 -55.5069 -25.9048 24.7101 -46.5069 -25.9123 36.6987 -46.5069 -26.4343 
40.6948 -42.5069 -26.6116 40.6943 -30.5069 -26.6216 25.7106 -46.4877 -2.93407 
21.7142 -42.4877 -2.7634 21.7138 -30.4877 -2.77341 25.7098 -26.4877 -2.95074 
37.6985 -26.4877 -3.47274 41.6948 -30.4877 -3.6434 37.6992 -46.4877 -3.45607 
41.6953 -42.4877 -3.6334 20.4523 -31.3119 -31.7453 20.4527 -41.7119 -31.7366 
-6.02224 -41.7119 -30.5839 -6.02261 -31.3119 -30.5925 35.6377 -26.5119 -32.4105 
25.2476 -26.5119 -31.9581 25.2466 -0.01196 -31.9802 35.6368 -0.01196 -32.4326 
21.7142 -42.4877 -2.7634 21.7138 -30.4877 -2.77341 25.7098 -26.4877 -2.95074 
37.6985 -26.4877 -3.47274 -47.2211 -26.4877 0.22474 -35.2324 -26.4877 -0.29725 
-31.2361 -30.4877 -0.46792 -31.2356 -42.4877 -0.45792 -37.0159 -26.5219 -41.2584 
-49.0046 -26.5219 -40.7364 -48.2053 -26.5219 -40.7712 -47.6833 -26.5119 -28.7826 
-37.2932 -26.5119 -29.235 -37.8152 -26.5219 -41.2236 -33.0191 -42.5219 -41.4191 
-33.0196 -30.5219 -41.4291 -33.0195 -31.322 -41.4284 -32.4975 -31.3119 -29.4398 
-32.4972 -41.7119 -29.4311 -33.0191 -41.722 -41.4198 -52.2172 -42.5069 -22.5661 
-52.2176 -30.5069 -22.5761 -48.2208 -46.5069 -22.7368 -36.2322 -46.5069 -23.2588 
-47.6843 -0.01196 -28.8047 -37.2941 -0.01196 -29.2571 -37.8161 -0.02197 -41.2457 
-48.2063 -0.02197 -40.7933 -6.02261 -31.3119 -30.5925 -6.02224 -41.7119 -30.5839 
-6.54461 -31.322 -42.5812 -6.54423 -41.722 -42.5725 -36.2319 -55.5069 -23.2513 
-52.2167 -55.5069 -22.5553 -61.2085 -46.5069 -22.1713 -61.2091 -30.5069 -22.1846 
-61.9921 -30.5219 -40.1676 -53.0006 -30.5219 -40.5591 -61.9915 -46.5219 -40.1543 
-37.0152 -46.5219 -41.2417 -37.0149 -55.5219 -41.2342 -52.9997 -55.5219 -40.5382 
-47.4229 -46.1578 30.7789 -48.7194 -45.2907 30.8346 -49.5857 -43.993 30.8712 
-49.8901 -39.4623 30.8807 -49.8902 -36.4623 30.8782 -49.8903 -33.4623 30.8757 
-49.8905 -27.4123 30.8706 -49.8906 -24.3623 30.8681 -49.8907 -21.3123 30.8656 
-49.8908 -18.2623 30.863 -49.8909 -15.2123 30.8605 -49.891 -12.1623 30.8579 
-49.8912 -9.1123 30.8554 -49.8913 -6.06231 30.8529 -49.8914 -3.01231 30.8503 
-49.8915 0.03769 30.8478 -49.8916 3.08769 30.8452 -49.8917 6.13769 30.8427 
-49.8918 9.18769 30.8401 -49.8919 12.2377 30.8376 -49.8921 15.2877 30.8351 
-49.8922 18.3377 30.8325 -49.8923 21.3877 30.83 -49.8924 24.4377 30.8274 
-49.8925 27.4877 30.8249 -49.8927 33.5377 30.8198 -49.8928 36.5377 30.8173 
-49.8929 39.5377 30.8148 -49.5889 44.0684 30.7978 -48.7227 45.3661 30.759 
-47.4262 46.2332 30.7019 -42.8998 46.5377 30.5045 -39.9026 46.5377 30.374 
-36.9055 46.5377 30.2435 -30.8612 46.5377 29.9803 -27.8141 46.5377 29.8477 
-24.767 46.5377 29.715 -21.7199 46.5377 29.5823 -18.6728 46.5377 29.4496 
-15.6257 46.5377 29.317 -12.5785 46.5377 29.1843 -9.53143 46.5377 29.0516 
-6.48431 46.5377 28.9189 -3.4372 46.5377 28.7863 -0.39009 46.5377 28.6536 
2.65702 46.5377 28.5209 5.70414 46.5377 28.3883 8.75125 46.5377 28.2556 
11.7984 46.5377 28.1229 14.8455 46.5377 27.9902 17.8926 46.5377 27.8575 
20.9397 46.5377 27.7249 23.9868 46.5377 27.5922 30.0311 46.5377 27.329 
33.0282 46.5377 27.1985 36.0254 46.5377 27.068 40.5518 46.2332 26.8712 
41.8484 45.3661 26.8155 42.7147 44.0684 26.7788 43.019 39.5377 26.7694 
43.0191 36.5377 26.7719 43.0192 33.5377 26.7744 43.0195 27.4877 26.7794 
43.0196 24.4377 26.7819 43.0197 21.3877 26.7845 43.0198 18.3377 26.787 
43.0199 15.2877 26.7896 43.02 12.2377 26.7921 43.0201 9.18769 26.7947 
43.0202 6.13769 26.7972 43.0204 3.08769 26.7997 43.0205 0.03769 26.8023 
43.0206 -3.01231 26.8048 43.0207 -6.06231 26.8074 43.0208 -9.1123 26.8099 
43.0209 -12.1623 26.8125 43.021 -15.2123 26.815 43.0211 -18.2623 26.8176 
43.0212 -21.3123 26.8201 43.0214 -24.3623 26.8226 43.0215 -27.4123 26.8252 
43.0217 -33.4623 26.8302 43.0218 -36.4623 26.8327 43.0219 -39.4623 26.8352 
42.7179 -43.993 26.8522 41.8516 -45.2907 26.891 40.5552 -46.1578 26.9482 
36.0288 -46.4623 27.1455 33.0316 -46.4623 27.2761 30.0345 -46.4623 27.4065 
23.9902 -46.4623 27.6697 20.9431 -46.4623 27.8024 17.896 -46.4623 27.9351 
14.8489 -46.4623 28.0678 11.8017 -46.4623 28.2004 8.75462 -46.4623 28.3331 
5.70751 -46.4623 28.4658 2.6604 -46.4623 28.5984 -0.38671 -46.4623 28.7311 
-3.43383 -46.4623 28.8638 -6.48094 -46.4623 28.9965 -9.52805 -46.4623 29.1291 
-12.5752 -46.4623 29.2618 -15.6223 -46.4623 29.3945 -18.6694 -46.4623 29.5272 
-21.7165 -46.4623 29.6598 -24.7636 -46.4623 29.7925 -27.8107 -46.4623 29.9252 
-30.8578 -46.4623 30.0579 -36.9021 -46.4623 30.321 -39.8993 -46.4623 30.4515 
-42.8964 -46.4623 30.582 26.7584 46.5324 21.1322 26.8962 46.535 24.2959 
25.8377 46.5147 -0.01443 25.9682 46.5172 2.98272 26.0987 46.5197 5.97988 
26.2292 46.5222 8.97704 26.3597 46.5247 11.9742 26.4902 46.5272 14.9714 
28.7043 46.5122 -3.14209 31.7015 46.5122 -3.27259 34.6987 46.5122 -3.40309 
37.8263 46.5147 -0.53643 37.9568 46.5172 2.46073 38.0873 46.5197 5.45789 
38.2178 46.5222 8.45505 38.3483 46.5247 11.4522 38.4788 46.5272 14.4494 
38.7471 46.5324 20.6102 38.8848 46.535 23.7739 -34.1838 46.5324 23.7857 
-34.0461 46.535 26.9493 23.5736 46.5297 18.1012 20.5264 46.5297 18.2339 
17.4793 46.5297 18.3665 14.4322 46.5297 18.4992 11.3851 46.5297 18.6319 
8.338 46.5297 18.7646 5.29089 46.5297 18.8972 2.24377 46.5297 19.0299 
-0.80334 46.5297 19.1626 -3.85045 46.5297 19.2953 -6.89756 46.5297 19.4279 
-9.94468 46.5297 19.5606 -12.9918 46.5297 19.6933 -16.0389 46.5297 19.826 
-19.086 46.5297 19.9586 -22.1331 46.5297 20.0913 -25.1802 46.5297 20.224 
[...]
CELL_DATA 12638
SCALARS cell_scalars float
LOOKUP_TABLE default
-7409.5 -6780.1 -7347.3 -7362 -6896.7 -7550.7 -7561.9 -6324.4 -6569.6 
-6033 -6568.6 -6466.2 -7079.4 -6963.3 -7467.7 -7317.9 -7695.5 -7459.5 
-7830.3 -7305.9 -7497.1 -6878.4 -7113.8 -6441.8 -6776.9 -5987.6 -6326.8 
-5651.2 -6469 -6510 -7052.8 -6969.3 -7509.1 -7325.8 -7790.9 -7557.3 
-7843.3 -7337.7 -7499.6 -6882.2 -7108.1 -6441.2 -6754.9 -6011 -6415.2 
-5834.1 -6467 -6471.6 -7059.7 -6965.2 -7446.6 -7290.6 -7741.7 -7511.3 
-7807.1 -7318.8 -7507.9 -6906.4 -7159.9 -6479.4 -6861.7 -6176.8 -6715.4 
-5994 -6657.9 -6633.8 -6123.6 -6835.2 -6933.5 -6367.2 -6758.8 -6221.2 
-6683.8 -6177.1 -6916.3 -6238.9 -6745.3 -6192.2 -6696.3 -6120.2 -6663.8 
-6158.9 -6628 -6117.8 -6697.2 -6165.6 -6735.5 -6169.4 -6714.5 -6136.8 
-6816.6 -6161.3 -6737.9 -6126.6 -6717.9 -6213 -6693.8 -6212.8 -6749.1 
-6191.9 -6761.4 -6242.5 -6811.9 -6215.6 -6832.7 -6257.7 -6852.7 -6282.4 
-6832 -6326.5 -6864.8 -6305.6 -6855.3 -6395.1 -6840.6 -6419.3 -6889.2 
-6349.5 -6924.7 -6418.5 -7004.5 -6381.5 -6940 -6439.5 -7012.8 -6600.8 
-7181.3 -7158.1 -6571.8 -7075.2 -6798.9 -6021.8 -6264 -5990.2 -6723 
-6347.7 -6920.1 -6675.3 -7291.6 -7101.9 -7660.8 -7460.7 -7797.3 -7421 
-7621.4 -7105.8 -7281.9 -6750.3 -6864.4 -6134.7 -6219.4 -5896 -6664.4 
-6304 -6888.6 -6636.7 -7282.5 -7104.4 -7646.8 -7514.7 -7812.6 -7446.1 
-7663.6 -7146.9 -7307.1 -6695.3 -6794.3 -6110.3 -6212.7 -5837.4 -6630.3 
-6173.5 -6863.3 -6646.4 -7298.8 -7117 -7640.6 -7462.4 -7757.3 -7341.8 
-7646.3 -7164.4 -7347.4 -6766.2 -6815.1 -6188.5 -6275.3 -5703.1 -6697.1 
-6898 -6339.9 -6982 -7311.1 -6491 -7236.3 -6409.6 -7203.7 -6357 
-7142.6 -6291.8 -7144.7 -6309.4 -7104.4 -6280.6 -7183 -6378.7 -7114.3 
-6358.9 -7116.8 -6364.5 -7142.3 -6335.5 -7134.2 -6309.5 -7137.3 -6391.2 
-7175.2 -6415.3 -7167.2 -6385.7 -7177.1 -6398 -7173.8 -6394.9 -7167 
-6424.8 -7211.3 -6439.7 -7234.5 -6481 -7206.9 -6447.5 -7228.8 -6453.3 
-7226.9 -6467.3 -7234.1 -6440.3 -7261.8 -6473.4 -7302.7 -6507.2 -7285.6 
-6501.2 -7284.3 -6501.6 -7303.6 -6628.7 -6455.8 -5808.3 -5692.7 -5732.2 
-5737.2 -5613.1 -5764.6 -5696.7 -5589.5 -5660.1 -5616.6 -5803.3 -6074.4 
-6097.9 -5601 -5587.9 -6046.8 -5646.9 -6453.1 -6247.9 -6870.5 -6717.8 
-7062.5 -7001.2 -7214.1 -7144.8 -6832.3 -7000.7 -6397.2 -6540.1 -5996.7 
-6142.4 -5704.3 -5802.9 -5894.9 -5617 -6520.3 -6217.3 -6895.2 -6674.5 
-7179.4 -7014.4 -7262.6 -7239.5 -6844.3 -7043.8 -6369.2 -6589.1 -5961.4 
-6143.6 -5717.6 -5812.9 -5926.8 -5701.2 -6506.7 -6250.3 -6867.4 -6727.8 
-7163.9 -7034.7 -7199.6 -7215.9 -6809 -7010.3 -6347.4 -6514.9 -5940.5 
-6109.3 -6045.5 -5839.1 -6146.4 -5718.6 -5564 -5723.5 -5642.1 -5708.7 
-5705.4 -5592.6 -5597.2 -5735.5 -5561.3 -5741.7 -5647.9 -5777.6 -5655.5 
-5777.2 -5734.7 -5766.5 -5726.6 -5780.8 -5751.7 -5819.5 -5729.4 -5761.2 
-5675.9 -5809.5 -5723 -5804.6 -5710 -5829.8 -5717.7 -5814.9 -5660.5 
-5781.6 -5692 -5802.7 -5663 -5829.8 -5730 -5825.1 -5725.7 -5766.4 
-5655.5 -5755.6 -5687.1 -5804.4 -5644.2 -5804.7 -5637.7 -5870.4 -5723.6 
-5757.8 -5527.2 -5745.9 -5695.5 -5723 -5693.3 -5743.8 -5707.5 -5635.7 
-5499.6 -5672.6 -5493.9 -5771.9 -5586.4 -5761.6 -5578.2 -5802 -5595.2 
-5763.7 -5556.2 -5794 -5614.2 -5825.9 -5609.9 -5876 -5596.3 -5891.7 
-5623.1 -5819.6 -5643 -5841.9 -5650.6 -5872.1 -5732.7 -5869.4 -5696.2 
-5993.8 -5697.1 -5947.6 -5753.5 -5852.9 -5751.7 -5970.4 -5793.5 -5870.1 
-5769.4 -5881.9 -5688.7 -5697.4 -5604.5 -5968.1 -5634.3 -5790.2 -5635.8 
-6163.7 -5932.6 -6631.4 -6390 -7074.6 -6826.9 -7230.6 -7202.9 -7018.5 
-7111.9 -6695.7 -6820.4 -6251.1 -6481.5 -5634.1 -5848.7 -5816.8 -5630.4 
-6166.2 -5931.4 -6613.3 -6328.6 -7091.2 -6809.4 -7295.8 -7227.5 -7044.7 
-7185.1 -6739.2 -6931.4 -6233.1 -6531.5 -5733.5 -5944.1 -5826 -5682.6 
-6184.9 -5985.9 -6635.4 -6373.7 -7075.5 -6834.8 -7203.7 -7214.2 -7110.1 
-7078.6 -6785.8 -6915.5 -6315.3 -6516.8 -5770.5 -5981.1 -5611.9 -5671 
-5872 -5621.1 -5717.3 -5749.4 -5986.4 -5665.4 -5759.5 -6356 -6014.7 
-5605.3 -5614.4 -5922.7 -5768.9 -6750.2 -6588.2 -6316 -6088.2 -5736.7 
-5845.1 -7027 -6875.4 -6793.3 -6526.9 -7127 -7020.1 -6934.3 -7109.6 
-6472.3 -6720.3 -6099.4 -6317.6 -5778.2 -5938.1 -5654.3 -5693.8 -6222 
-5984.9 -6681.2 -6456.4 -6998.2 -6862.1 -7239.8 -7126.4 -7013.1 -7185 
-6548.8 -6777.8 -6096.4 -6286.8 -5735.3 -5882.1 -5642.4 -5638.8 -6344.5 
-5942 -6793.7 -6535.1 -7076.6 -6944.3 -7183.3 -7132.3 -6994.9 -7173.8 
-6526.1 -6765.2 -7182.9 -6994.1 -7077.8 -7183.7 -6823.8 -6975.8 -6517.7 
-6718.8 -5920.5 -6261.5 -5715.1 -5601.8 -5958 -5785.5 -6349.5 -6136.5 
-6825.8 -6569.4 -7222 -7052.3 -7082.6 -7200.6 -6829.4 -6966.3 -6426.1 
-6615.3 -5939.6 -6166.7 -5737.5 -5682.6 -5946.8 -5760.7 -6333.6 -6098.9 
-6764.7 -6529.8 -7136.2 -6952.1 -7018.3 -7113.5 -6889.6 -6958.3 -6558.7 
-6745.1 -6064.4 -6289.9 -6029.9 -6342.2 -5784.1 -5843.9 -5853.7 -5908.5 
-5862.6 -5962.6 -5617.7 -5925.6 -5854.7 -5914.8 -5828.3 -6088.4 -5878.9 
-6077.6 -5819.5 -5958.2 -5856.2 -6042.9 -5843.2 -6021.3 -5769 -5968.5 
-5785.1 -5984.3 -5778.9 -5997.2 -5801.7 -5899 -5764.9 -5926.6 -5773.3 
-5862.5 -5732.6 -5893.2 -5774.9 -5878.1 -5760.3 -5923.7 -5645.8 -5831.1 
-5566.2 -5812.3 -5618 -5644.1 -5573.4 -5697.8 -5566.7 -5598.2 -5678 
-5647.8 -5657.1 -5710.9 -5626.3 -5648.1 -5637.2 -5704.4 -5704.6 -5733 
-5581.4 -5757.9 -5585.7 -5700.1 -5576.4 -5695.8 -5542.7 -5695.3 -5615.1 
-5644.8 -5521.3 -5664.4 -5582.7 -5660.4 -5568.2 -5650.6 -5539.9 -5611.6 
-5558.9 -5614.9 -5596.7 -5592.2 -5626 -5626.2 -5604.5 -5699.1 -5617.3 
-5710.2 -5643.7 -5706.3 -5641.5 -5692.9 -5599.1 -5590.2 -5518.8 -5603.6 
-5467.4 -5492.6 -5496.8 -5672.6 -5813 -6132.4 -5718.3 -5788.9 -5686.2 
-5803.6 -5577 -5507.3 -5534.7 -5717.1 -5873.1 -5752.3 -6067.2 -5919.7 
-5817.2 -5949.7 -6483 -6339.5 -6525.6 -6328.7 -6159.9 -6394.8 -6828 
-6740.3 -6974.1 -6970.4 -6982.7 -6748 -6174.7 -6380.4 -5803.2 -5928.8 
-7120.1 -7112.6 -7197.7 -7156.5 -5679.6 -5582.5 -6725.4 -6991.3 -6344.7 
-6530.8 -5871 -6112 -5583.5 -5683.8 -6021.8 -5553.3 -6548.4 -6320.5 
-6930.6 -6757.2 -7173.1 -7045.8 -7191 -7252.9 -6750.6 -7004.2 -6272.7 
-6515.7 -5847.6 -6053.2 -5507.2 -5693.4 -5961.6 -5519.1 -6501.8 -6282.5 
-6857.3 -6632.9 -7099.3 -6980.5 -7177.8 -7226.4 -6740.2 -7003.8 -6297.2 
-6523 -7023.4 -7128.9 -6800.3 -6935.5 -6306.3 -6564.7 -5565.8 -6002.1 
-5735.9 -5559.7 -6068.3 -5843.5 -6522.4 -6268.4 -6994 -6734 -7269.9 
-7222.1 -7024.7 -7177.1 -6717.4 -6898.8 -6296 -6578 -5526.1 -6040.4 
-5654.4 -5542.4 -6049.8 -5862.6 -6520.8 -6288.4 -6990.3 -6763.9 -7129.6 
-7152.8 -6995.2 -7018.4 -6716.9 -6860.8 -6266.8 -6485.7 -6271.8 -6326.7 
-6190.6 -6456.8 -6270.5 -6365.2 -6360.6 -6379.8 -6362 -6375.1 -6317.5 
-6449.5 -6285.8 -6484.1 -6258.9 -6402.9 -6251.6 -6438.6 -6261.2 -6361.2 
-6216.5 -6379.9 -6205.2 -6338.6 -6173.2 -6330.9 -6087.3 -6229.8 -6044.4 
-6192.4 -6040.5 -6214.5 -6022.2 -6179.7 -5979.2 -6151 -5970.7 -6118.3 
-6098.6 -6301.9 -5922.9 -6228.7 -5853.4 -5909.1 -5837.9 -5986.9 -5930.1 
-6001.5 -5972.1 -6061.2 -5948.2 -6028.1 -5913.9 -6018 -5921.1 -6043.7 
-5917.3 -6056.5 -5919.6 -6060.1 -5911.4 -6044.2 -5909.2 -6038.8 -5923.2 
-6009.2 -5905.1 -6027.8 -5885.3 -6015.3 -5874.9 -5948.7 -5847 -5925.2 
-5811.8 -5902.6 -5732.7 -5850.4 -5755.8 -5828.2 -5778.4 -5850.7 -5757.4 
-5834.6 -5674.2 -5837.9 -5577.9 -5557.7 -5854.4 -5652.2 -5780.7 -6004.6 
-5985.5 -6112.6 -5933.8 -6110 -6567.3 -6428.6 -5986.7 -6136.6 -6326.3 
-6115 -6114.1 -6683.6 -6567.8 -6560.4 -6995.8 -6848.5 -7166.4 -7033.8 
-6964.6 -7148.1 -6781.6 -6577.1 -7163.2 -7014.7 -7067.3 -7189.4 -6827.3 
-6728.2 -5999.6 -6075.1 -6522 -6363.5 -6480.3 -6578.3 -6034.1 -6115.1 
-7042.8 -7002 -7024.3 -6741.8 -6585.8 -6518.4 -6562.9 -6778.4 -6883.4 
-6972.7 -6136 -6183.9 -6134.1 -6267 -6113.7 -6258.5 -6077.6 -6212.2 
-6099.9 -6245.5 -6146 -6260.2 -6190.4 -6270.8 -6194.3 -6281.2 -6202.5 
-6290.7 -6217.8 -6300 -6223.4 -6316.1 -6245.3 -6349.4 -6277.3 -6363.2 
-6269.5 -6365.9 -6262.5 -6424.5 -6599.7 -6687.4 -6610 -6699.6 -6609 
-6717.7 -6643.3 -6739.2 -6650.5 -6729.4 -6671.3 -6787.7 -6612 -6737.4 
-6530.2 -6692.5 -6555.4 -6691.8 -6529.9 -6676.6 -6552 -6694.1 -6557.1 
-6687.7 -6597.9 -6703.9 -6606.3 -6732.6 -6577 -6770.9 -7224.8 -7200.2 
-7003.3 -7152 -6668.1 -6873 -6082.4 -6467.2 -5791.4 -5825.7 -5854.1 
-5717.7 -6169 -5969.1 -6583.3 -6375.2 -7041.4 -6833.6 -7191 -7237.4 
-6951.4 -7082.5 -6600.8 -6794.3 -6139.4 -6342.1 -5486.6 -5743.6 -5710 
-5633.2 -6076 -5888.8 -7147.4 -7132.1 -6764.1 -6978.7 -6342.7 -6525.4 
-5977.6 -6146.9 -5708.9 -5845.1 -5929 -5763.3 -6546.2 -6197.9 -6897.5 
-6723.5 -7168.8 -7026.4 -7212.3 -7261.8 -6746.2 -6995.2 -6297 -6547.3 
-5867.8 -6093.9 -5574.3 -5742.7 -5925.3 -5777.2 -6467.1 -6159.6 -6255.9 
-6361.9 -6636.9 -6710.8 -6224.5 -6354.5 -6686.8 -6826.4 -6199.3 -6342.6 
-6623.6 -6750.9 -6193.6 -6271.2 -6607.2 -6716 -6348.3 -6670.7 -6678.3 
-6268.1 -6591.3 -6432 -6921.1 -6779.8 -6723.9 -6789 -6967.7 -6807.1 
-6457.1 -6335.8 -6710.7 -6350.7 -7023.4 -6999.3 -7127.8 -7194.2 -6889.5 
-7051.8 -6849.4 -7153.2 -7181.2 -6974.2 -7096.6 -6880.4 -6931.8 -6518.9 
-6605.9 -6906.3 -7016.3 -7024 -7001.1 -6954.1 -7067 -6975.5 -7032.5 
-6994.8 -7078.6 -7008.8 -7024.5 -7009.2 -7048.1 -6968.1 -7074.4 -6975.5 
-7057.2 -6967.1 -7050.2 -6993.1 -7035.7 -6930.1 -7011.3 -6916.6 -6983.5 
-6821 -6937.8 -6842.7 -6913 -6856.5 -6942.8 -6842.9 -6888 -6839.8 
-6929.5 -6605.3 -6685.6 -6662.4 -6779.1 -6603.6 -6762.5 -6636 -6738 
-6586.8 -6743.9 -6613.7 -6722.3 -6593.8 -6729.5 -6564.8 -6729.1 -6550.9 
-6715 -6543.8 -6706.4 -6544.8 -6702.8 -6563.3 -6706.2 -6576.1 -6723.9 
-6560.9 -6692.9 -6547.7 -6661.2 -6482.9 -6619.7 -6483.8 -6592 -6404.5 
-6560.9 -7106.4 -6904.6 -7059.7 -7149 -6882.6 -6960.4 -6517 -6713.6 
-6035.4 -6227.7 -5521.4 -5735.3 -5862.3 -5698.7 -6261.9 -6025.7 -6761 
-6505.6 -7233 -6981.5 -7173.1 -7281.1 -6937.7 -7042 -6576 -6761.9 
-5983.2 -6295.6 -5683.5 -5694.4 -5965.2 -5755.4 -7141.1 -7019.9 -7019.8 
-7228.4 -6545.9 -6796.2 -6051.9 -6308.8 -5680 -5876.4 -5477.7 -5531.4 
-6218 -5926.4 -6609.2 -6427.8 -6963.8 -6809.7 -7196.1 -7102.5 -7049.3 
-7227.1 -6590.4 -6803.2 -6150.2 -6352.3 -5832.1 -5953.7 -5647.5 -5676.5 
-6100 -5874 -6843.4 -7030.2 -6544.8 -6950.9 -6789.4 -6912 -6897.7 
-7015.6 -6577.2 -6854.4 -6398.8 -6104.9 -6335.9 -6779.7 -6494.7 -7070.3 
-7056.2 -7211.4 -6970 -7037.4 -7175.8 -7086.1 -7179.3 -7057.7 -7130 
-7120 -7141 -7105.2 -7153.2 -7152.9 -7148.4 -7094.2 -7165.6 -7099.1 
-7138.2 -7110.1 -7103.9 -7090.4 -7070 -7110.4 -7061.8 -7088.1 -7102.2 
-7078.4 -7064.2 -7064.4 -7094.1 -7110.7 -7093.9 -7066.7 -7095.1 -7035 
-7100.7 -7054.7 -7049.5 -7067.2 -7120.9 -7012.1 -7119.6 -7074.1 -7195.3 
-7028.7 -7140.9 -7014.7 -7109 -7041.1 -7157.9 -7056.8 -7188.9 -7075.3 
-7212.5 -7046.3 -7169.4 -7032.4 -7184 -7022.5 -7139.3 -7008.8 -7155.3 
-6916 -7061.9 -6895.7 -7030.5 -6886.2 -7003.3 -6902.4 -7061.4 -6861.3 
-7023.8 -6881.5 -6996.8 -7195 -7159.9 -6947.7 -7137.1 -6615.8 -6801.2 
-6150.2 -6398 -5734 -5836.9 -5795.6 -5679.1 -6095.2 -5912.7 -6515.3 
-6330.9 -6985.4 -6778.3 -7248.4 -7217.1 -7025.9 -7151.1 -6741.2 -6902 
-6238.8 -6492.5 -5690.2 -5998.1 -5679.5 -5578.7 -7198.3 -7213.7 -7034.2 
-6745 -6965.5 -6321.3 -6546.9 -5968.4 -6127.3 -5645.9 -5793.9 -5979.8 
-5640.2 -6535.6 -6257.5 -6936.5 -6769.7 -7161.6 -7072.6 -7210.2 -7268.8 
-6739.8 -6972.2 -6295.6 -6523.4 -5856.3 -6066 -5623.2 -5690.8 -5940.6 
-5502 -7052.2 -7059 -6966.8 -7204.1 -6876.9 -7100.9 -7187.6 -7090.1 
-7243.7 -7206.8 -6993.4 -7180.4 -7204.3 -7225.4 -7146.3 -7140.5 -7236.4 
-6778.9 -6957.4 -6477 -6618.4 -6267.8 -7206.3 -7263.4 -7191.9 -7107 
-7140.3 -7273.5 -7180 -7228.7 -7254.2 -7223 -7211.4 -7220.3 -7224.2 
-7183.4 -7177.5 -7163.3 -7181.2 -7158.3 -7184.2 -7129.7 -7239.2 -7185 
-5859.7 -6098.4 -6470.9 -6271.8 -7294.2 -7225 -7250.9 -7214.4 -7224.1 
-7165.5 -7109.5 -7224.9 -7190.8 -7194.5 -7182.7 -7229.4 -7216.1 -7198.2 
-7208.5 -7249.9 -7241.3 -7224.2 -7238.6 -7238.8 -7284.4 -7243.3 -7287.4 
-7245.5 -7293.5 -7263.8 -7298.1 -7272.9 -7295.8 -7270.8 -7264.2 -7256 
-7249.3 -7217.7 -7202.5 -7162.9 -7220.1 -7189.4 -7245.2 -7182.5 -6880.1 
-7020.2 -6555.6 -6658.6 -5987.5 -6299.1 -5604 -5706.3 -5900.7 -5702.6 
-6315.7 -6097.2 -6790.2 -6512.8 -7214.7 -7012.8 -7127.2 -7223.4 -6827.5 
-7010.8 -6407.3 -6665.9 -5937.7 -6212.6 -5660.8 -5682.7 -6552.2 -6807.4 
-6098.5 -6317.4 -5707.9 -5890.6 -5669.8 -5645.9 -6126.9 -5945.7 -6675.5 
-6447.8 -6980.2 -6830.3 -7236.8 -7114 -7052.2 -7233.1 -6572.6 -6825.5 
-6126.9 -6356.7 -5785.4 -5988.6 -5682.9 -5700.5 -7114.1 -6642 -7192.8 
-6985.8 -6799.3 -7121.1 -6919.2 -7140.5 -6904.1 -6704.8 -6873.2 -6964.7 
-7005.3 -7101.7 -6979.5 -7110.4 -6269.6 -6493.9 -5872.2 -6025.2 -5726.7 
-6654.3 -6820.3 -6649.9 -6818.3 -6099.9 -6440.2 -5781.2 -6331.5 -6529.3 
-7124.3 -7068.2 -7142.1 -7061.8 -7130.8 -7071 -7154.8 -7072.9 -7099.9 
-7037.8 -7072.3 -7022.2 -7063.7 -6995.6 -7116.1 -6983 -7071.8 -6988.1 
-7099.1 -6972.5 -7079.8 -6968.1 -7075.1 -7021 -7097.8 -7034.9 -7027.9 
-6971.3 -6214.8 -6403.8 -5816.6 -5911.5 -5733.5 -5581.4 -6097.3 -5931.7 
-6462 -6254 -6971.2 -6736.9 -7265.1 -7184.8 -7066.9 -7199.1 -6754.9 
-6886.6 -6284.2 -6555.3 -5733.2 -6022.7 -5886 -6087.1 -5657.4 -5724 
-5962.6 -5712.4 -6477.6 -6242.2 -6830.6 -6703.4 -7135.8 -7017.6 -7261.3 
-7264.7 -6804.9 -7049.1 -6329.2 -6558 -5936.6 -6102.3 -5560.3 -5781.5 
-7088.1 -6988.5 -7012.3 -6880.2 -7046.2 -6909.3 -7002.3 -6914.9 -6966 
-6844.4 -6919.5 -6830.5 -6912.7 -6777.6 -6903.3 -6782.3 -6904.8 -6767.9 
-6891.7 -6753.7 -6907.3 -6765.7 -6875.5 -6728.7 -7076.2 -6492.2 -6681 
-6700.7 -6580 -6792.4 -6887.7 -6392.4 -6618.8 -6938.6 -6973 -6790.4 
-6092.7 -6263.3 -5723.3 -6114.5 -6921.1 -6870.2 -5747.3 -5915.8 -6973.1 
-6859.6 -5583.9 -5537.7 -5613.7 -5654.8 -6870.4 -6880.6 -6653.2 -6540 
-6913.5 -6783.3 -6951.2 -6893.7 -6883 -6800.7 -6857.6 -6830.8 -6829.7 
-6809.8 -6859.3 -6756.8 -6789.5 -6780.1 -6811.3 -6680.1 -6753.8 -6667.4 
-6768.9 -6667.1 -5600.2 -5705.3 -6023.9 -5892.1 -6458.5 -6210.9 -6689.6 
-6859.3 -6667.8 -6753.2 -5877.4 -5723 -6293.8 -6075.8 -6780.5 -6517.5 
-7191.2 -7020.5 -7178.9 -7270 -6921.5 -7065.9 -6608.4 -6805.1 -6071.3 
-6356.2 -6113.3 -5827 -6757.3 -6504.6 -7029.2 -6866 -7224 -7111.5 
-7034.6 -7192.8 -6561.1 -6837.4 -6091.7 -6340.2 -5796.5 -5895.3 -5566.6 
-5938.9 -6376.2 -6204.8 -6607 -6465.9 -6572.5 -6446.5 -6601.7 -6448.2 
-6604 -6462.6 -6627.2 -6469.1 -6570 -6447.9 -6576.7 -6466.4 -6547 
-6437.4 -6489.9 -6394.3 -6499.1 -6359.4 -6558.9 -6292.5 -6681.9 -6500.6 
-6664.6 -5943.4 -6191.3 -5809.3 -6758.2 -6545.1 -6697.1 -6101.5 -6351.5 
-5688.2 -5827.4 -5746.3 -6230.3 -6181.4 -5864.2 -5951.2 -5681.2 -5756.1 
-5663.9 -5865.1 -5561.6 -6176.1 -6011 -6433.2 -6509.1 -6403.7 -6385.6 
-6241.4 -6117.5 -6198.8 -6068.4 -6173.3 -6044.4 -6162.1 -6041.8 -6164.9 
-6070.3 -6153.7 -6055.2 -6141.5 -6052.2 -6110.7 -6016.9 -6160.9 -6020.7 
-6079.1 -6017.9 -5767.8 -5582.9 -6014.4 -5875.5 -6451.4 -6225.7 -6973.2 
-6711.1 -7247.4 -7166.8 -6944.7 -7111.9 -6649.7 -6839.9 -6187 -6457.8 
-5839.9 -5635.8 -6444.7 -6100.6 -6810.5 -6624.3 -7172.7 -7049.2 -7192.7 
-7258.7 -6824.6 -7000.5 -6410.1 -6595.4 -6008.6 -6192.9 -6599.4 -6517.2 
-6601.4 -6511.9 -6504.6 -6428.1 -6546.4 -6343.2 -6562.4 -6326.6 -6535.3 
-6373.8 -6614 -6393.5 -6609.3 -6525.6 -6545.3 -6451.2 -6481.4 -6359.2 
-6546.6 -6410.7 -6293 -6095 -5606.8 -5903.9 -6303 -6583.4 -6409.8 
-5813.4 -5974.8 -6003.3 -6196.7 -6132.5 -5986.7 -5980.8 -5695.6 -5835.8 
-5632 -5615 -5854.3 -5888.7 -5742.7 -5723.6 -5623.8 -5693.2 -5860.2 
-5874.7 -5817.1 -5881.4 -5809.1 -5919.2 -5807.8 -5945.5 -5846.2 -5939.2 
-5822.4 -5892.7 -5772.4 -5862.2 -5791.6 -5844.1 -5768.5 -5792.5 -5723.7 
-5881.4 -5682.8 -6124.2 -6091.1 -6217.9 -6032.6 -6242.9 -6113.4 -6175.1 
-6097.1 -6143.6 -6016.1 -6043.3 -5991.3 -6015 -5945.8 -6041.4 -5888.2 
-6109.9 -5891.8 -6002.3 -5916.8 -6237.1 -6095.4 -6702.9 -6477 -7133.4 
-6947.3 -7190.6 -7245.4 -6965.8 -7095.6 -6597.3 -6819.1 -6179.1 -5986.6 
-5663.9 -6737 -6493 -6984.2 -6826.4 -7218.9 -7129 -7068.5 -7220 
-6598.6 -6859.3 -6122.5 -6369.6 -5603.5 -5877.1 -5725 -6145.6 -5862 
-5621.4 -5751.4 -5766 -5719.6 -5720.7 -6105.1 -5905.5 -6554.8 -6392.4 
-6833.1 -6736.9 -5675.5 -5707 -5693.1 -5619.8 -5616 -5568.1 -7109.9 
-7000.8 -5819.7 -5740.9 -5569.5 -5732.6 -6087.5 -5614 -6374.9 -5720.8 
-5614.8 -5754.4 -5601.8 -5912.4 -5642.8 -5692.8 -5621.6 -5654 -5767 
-5647.5 -5747.7 -5612.3 -5756 -5555.4 -5732.4 -5642.3 -7189 -7235.1 
-6812.5 -7028.4 -6401.8 -6625.6 -5578.4 -5654 -5679.6 -5564 -5651.9 
-5843.6 -5717.8 -5716.9 -5681.2 -5613.5 -5652.7 -5623.4 -6038.8 -5808.9 
-6505.1 -6238.3 -6979 -6711.4 -7225.4 -7178.4 -7076.2 -7196 -6788.5 
-6929 -5625.1 -5805.3 -5716.1 -5720.2 -5622.3 -5645.6 -5759.8 -5971.1 
-5788.9 -6194.7 -5769.4 -5858.8 -5793.4 -5790 -5816.9 -5827.4 -5697.9 
-5855.2 -5869.4 -5999 -6556.3 -6355.7 -6796.3 -6734.7 -6987.1 -6322.4 
-6069.7 -6551.2 -6226.1 -6056 -5751.7 -5799.8 -5882.1 -6033.9 -5665.8 
-5722.7 -5783.4 -6005.8 -5948.8 -5991.3 -5907.1 -5952.8 -5803.1 -5994 
-5896.2 -6008.2 -6678.5 -6457.3 -7177.3 -6926.7 -7191.4 -7264.2 -6908.1 
-7072.4 -7251.2 -7104.9 -7098.5 -7242.6 -6641.8 -6884.9 -6522.4 -6351.7 
-5925.7 -6049.1 -6489 -6255.8 -5924 -6126.3 -6071.8 -6249.7 -6079.3 
-6420 -6871.9 -6745.7 -7083 -7009.5 -5926.4 -6080.6 -6008.5 -6338 
-6449.7 -6941.6 -6716.9 -6283 -6538 -6260.1 -6458.1 -7262 -7198.1 
-7261.9 -7166.6 -6371.6 -6471.6 -6322.9 -6472.1 -5789.9 -5810.1 -5827.6 
-7076.5 -7212.5 -6561.8 -6756.7 -6924.6 -7160 -5982.6 -6156.4 -6175.4 
-6000.8 -6068.7 -6344.5 -6273.6 -6412.3 -6676.2 -6550.7 -6328.5 -6721.4 
-6471.1 -6378.5 -6968.2 -6828.6 -6765.4 -6752.1 -7063.3 -7026.2 -7180.2 
-6065.8 -5970.5 -6260.1 -5915.6 -6069.4 -6750.2 -6787.9 -6678.7 -6785.1 
-6690.2 -6776.8 -6659.2 -6788.4 -6683.9 -6473.3 -7107.5 -6879.6 -7207.8 
-7220.6 -7212.1 -7265.6 -6324.7 -6284.6 -6713.4 -6093.3 -7079.2 -7000.2 
-7245.8 -6550.4 -6525.1 -6785.5 -7037.2 -6494.3 -6291.4 -7005.1 -6912.5 
-7132.4 -6360.9 -6448.3 -6432.9 -6988.4 -7056.4 -6954.4 -7029.6 -6920.4 
-6753.7 -7251.5 -7159.1 -6990.5 -6729.2 -7109.7 -7197.3 -7181.1 -7237.2 
-7262.1 -7158.7 -7293.5 -7282 -7011.8 -7180.9 -6749.6 -6713.4 -6872.6 
-6840.6 -7110.9 -7240.6 -7096.8 -7067.9 -7212.3 -7385.2 -7625.7 -7880 
-7816.5 -7864.5 -7978 -8136.2 -8097.1 -8106.1 -8158.1 -8270 -8237.9 
-8241.1 -8272.3 -8346.3 -8328.4 -8326.6 -8343.2 -8399.9 -8388.6 -8387.8 
-8402.1 -8453.9 -8432.3 -8435.7 -8450.3 -8467.3 -8466.4 -8461.8 -8482.5 
-8483.6 -8447.5 -8450.9 -8459.1 -8010.4 -8067.6 -8031.7 -8079.9 -8139.6 
-8483.7 -8657.1 -8191.9 -8529.6 -8920.8 -8290.6 -8527.4 -9003.3 -8240 
-8543.6 -9046.4 -8177.3 -8522.4 -9044.3 -8043.3 -8539.6 -8957.6 -8077.7 
-8533.8 -8867 -8044.3 -8541.1 -8798 -8081.8 -8539.8 -8825.6 -8165.9 
-8533.6 -8899.8 -8206.8 -8546.5 -8979.9 -8311.7 -8536.2 -9056.5 -8260.7 
-8559 -9033.5 -8155.1 -8545.8 -9023 -8040 -8560.1 -8974.4 -8078.7 
-8546.5 -8877.5 -8061.8 -8545.9 -8881.2 -8095.8 -8543.2 -8866.7 -8157.9 
-8525.6 -8886 -8191.6 -8516.3 -8705.8 -7968.9 -7837.1 -7795 -7860.6 
-8159.1 -8088.4 -8083.1 -8154 -8267.3 -8233 -8239.7 -8289 -8334 
-8321.5 -8330.7 -8362.4 -8390.5 -8383.3 -8393 -8414.9 -8431.1 -8429.3 
-8439.2 -8459.1 -8478.6 -8473.8 -8475.4 -8492.4 -8516.1 -8484.7 -8503 
-8513 -8476.9 -8488 -8479.9 -8508.8 -8289.6 -8224.7 -8162.7 -8057.3 
-8371.7 -8559.1 -8548.5 -8365.6 -8543.1 -8544.7 -8331.5 -8558.8 -8535.2 
-8199.3 -8540.7 -8497.4 -8231.8 -8567.1 -8563.6 -8306 -8604.1 -8654.4 
-8229.5 -8574.8 -8602.8 -8461 -8513.9 -8500.1 2774.3 4358.8 4152.1 
2254.4 -6612.5 -6159.9 -6220.7 -6784.6 -8069.3 -7967.5 -7969.3 -8073.8 
-8263.3 -8214.6 -8221.9 -8274.5 -8353.5 -8354.1 -8354.4 -8373.6 -8422.1 
-8422 -8421.1 -8429.8 -8444.3 -8446.5 -8447.9 -8450.5 -8579.5 -8597.4 
-8599.2 -8588.1 -8534 -8527.4 -8528.4 -8541.2 -8217.9 -8227.9 -8217.9 
-8228.9 -7871.3 -7761.3 -7767.9 -7888.5 -8294.9 -8290.2 -8291.7 -8296.2 
-8312.4 -8310.4 -8311.6 -8313.2 -8356.6 -8354.4 -8355.5 -8359.3 -8376.4 
-8424.8 -8425.4 -8359 -8340 -8352.4 -8354 -8347.2 -8416.6 -8411.1 
-8414.4 -8438.2 -8453.9 -8443 -8445.4 -8470.6 -8446.4 -8432.6 -8432.9 
-8441.5 -8370.9 -8350.1 -8338.7 -8357.4 -8178 -8526.7 -8608.9 -8182.1 
-8549.8 -8724.7 -8181.7 -8560 -8746.9 -8200.7 -8563 -8731.8 -8220.6 