# vtk DataFile Version 4.2
vtk output
ASCII
DATASET UNSTRUCTURED_GRID
POINTS 8741 float
-48.0992 -42.473 31.1938 -48.0994 -30.473 31.1866 -48.1003 30.527 31.1502 
-48.1005 42.527 31.143 -44.102 46.527 31.0364 -32.106 46.527 30.7235 
28.8732 46.527 29.1331 40.8691 46.527 28.8203 44.8678 42.527 28.7184 
44.868 30.527 28.7255 44.869 -30.473 28.762 44.8692 -42.473 28.7691 
40.8706 -46.473 28.8758 28.8747 -46.473 29.1887 -44.1005 -46.473 31.0919 
-32.1046 -46.473 30.7791 28.6255 46.5213 19.6364 28.078 46.5088 -1.35649 
40.074 46.5088 -1.66935 40.6214 46.5213 19.3235 -32.3537 46.5213 21.2267 
-44.3496 46.5213 21.5396 -44.8971 46.5088 0.54674 -32.9012 46.5088 0.23388 
44.6202 42.5213 19.2216 -48.3482 42.5213 21.6463 44.0727 42.5088 -1.77125 
44.0728 30.5088 -1.76408 44.6203 30.5213 19.2288 -48.348 30.5213 21.6534 
-48.8955 30.5088 0.66059 -48.8957 42.5088 0.65342 44.6213 -30.4787 19.2652 
-48.3471 -30.4787 21.6899 44.0738 -30.4912 -1.72764 44.074 -42.4912 -1.72047 
44.6215 -42.4787 19.2724 -48.3469 -42.4787 21.6971 -48.8944 -42.4912 0.70419 
-48.8946 -30.4912 0.69703 40.6229 -46.4787 19.3791 -44.3482 -46.4787 21.5951 
40.0754 -46.4912 -1.6138 28.0795 -46.4912 -1.30094 28.627 -46.4787 19.6919 
-32.3523 -46.4787 21.2823 -32.8998 -46.4912 0.28944 -44.8957 -46.4912 0.6023 
-32.3526 -26.4787 21.2703 -28.3539 -30.4787 21.1684 -28.3537 -42.4787 21.1756 
24.6283 -42.4787 19.7938 24.6281 -30.4787 19.7866 28.6267 -26.4787 19.68 
40.6226 -26.4787 19.3671 40.6218 26.5213 19.3354 28.6258 26.5213 19.6483 
24.6271 30.5213 19.7502 24.6269 42.5213 19.743 -28.355 42.5213 21.1248 
-28.3548 30.5213 21.132 -32.3534 26.5213 21.2387 -44.3493 26.5213 21.5515 
-44.3485 -26.4787 21.5832 52.0008 30.4843 -42.9848 52.0006 46.4843 -42.9943 
43.0035 55.4843 -42.7651 27.0089 55.4843 -42.3479 27.0091 46.4843 -42.3425 
23.0105 42.4843 -42.2359 23.0105 41.6843 -42.2354 -3.48047 41.6843 -41.5445 
-3.4803 31.2843 -41.5383 23.0107 31.2843 -42.2292 23.0107 30.4843 -42.2287 
27.0094 26.4843 -42.3306 27.8091 26.4843 -42.3515 27.8095 -0.01572 -42.3356 
38.206 -0.01572 -42.6068 38.2056 26.4843 -42.6226 43.0039 30.4843 -42.7501 
39.0053 26.4843 -42.6435 39.4743 46.495 -24.6615 27.4784 46.495 -24.3487 
27.4782 55.495 -24.354 43.4728 55.495 -24.7712 52.4699 46.495 -25.0005 
52.4701 30.495 -24.9909 43.473 42.495 -24.7634 43.4732 30.495 -24.7563 
28.078 46.5088 -1.35649 24.0795 42.5088 -1.24982 24.0796 30.5088 -1.24265 
28.0783 26.5088 -1.34455 40.0743 26.5088 -1.65741 44.0728 30.5088 -1.76408 
40.074 46.5088 -1.66935 44.0727 42.5088 -1.77125 23.3235 31.2914 -30.2332 
23.3234 41.6914 -30.2395 -3.16744 31.2914 -29.5424 -3.16761 41.6914 -29.5486 
38.5185 26.4914 -30.6267 28.122 26.4914 -30.3555 38.5189 -0.00855 -30.6108 
28.1224 -0.00855 -30.3397 24.0795 42.5088 -1.24982 24.0796 30.5088 -1.24265 
28.0783 26.5088 -1.34455 40.0743 26.5088 -1.65741 -45.166 26.4843 -40.4482 
-45.1656 -0.01572 -40.4324 -34.7692 -0.01572 -40.7035 -34.7696 26.4843 -40.7194 
-33.9699 26.4843 -40.7402 -29.9713 30.4843 -40.8469 -29.9713 31.2843 -40.8474 
-3.4803 31.2843 -41.5383 -3.48047 41.6843 -41.5445 -29.9715 41.6843 -40.8536 
-29.9715 42.4843 -40.8541 -33.9702 46.4843 -40.7522 -33.9703 55.4843 -40.7575 
-49.9649 55.4843 -40.3404 -58.9617 46.4843 -40.1004 -58.9614 30.4843 -40.0908 
-49.9645 30.4843 -40.3255 -45.9658 26.4843 -40.4274 -58.4921 30.495 -22.0969 
-58.4924 46.495 -22.1065 -49.4956 55.495 -22.3465 -33.501 55.495 -22.7637 
-33.5009 46.495 -22.7583 -45.4968 46.495 -22.4454 -49.4954 42.495 -22.3388 
-49.4952 30.495 -22.3316 -32.9012 46.5088 0.23388 -28.9025 42.5088 0.13198 
-28.9023 30.5088 0.13915 -32.9009 26.5088 0.24583 -44.8968 26.5088 0.55869 
-48.8955 30.5088 0.66059 -44.8971 46.5088 0.54674 -48.8957 42.5088 0.65342 
-29.6584 31.2914 -28.8514 -29.6586 41.6914 -28.8577 -3.16761 41.6914 -29.5486 
-3.16744 31.2914 -29.5424 -44.8532 26.4914 -28.4523 -34.4567 26.4914 -28.7234 
-34.4563 -0.00855 -28.7076 -44.8528 -0.00855 -28.4365 -28.9025 42.5088 0.13198 
-28.9023 30.5088 0.13915 -32.9009 26.5088 0.24583 -44.8968 26.5088 0.55869 
38.2064 -26.5157 -42.5909 38.206 -0.01572 -42.6068 27.8095 -0.01572 -42.3356 
27.8099 -26.5157 -42.3198 27.0102 -26.5157 -42.2989 23.0117 -30.5157 -42.1922 
23.0117 -31.3157 -42.1918 -3.47933 -31.3157 -41.5009 -3.47917 -41.7157 -41.4947 
23.0118 -41.7157 -42.1856 23.0118 -42.5157 -42.1851 27.0105 -46.5157 -42.287 
27.0107 -55.5157 -42.2816 43.0052 -55.5157 -42.6987 52.002 -46.5157 -42.9388 
52.0018 -30.5157 -42.9483 43.0048 -30.5157 -42.7137 39.0061 -26.5157 -42.6118 
52.4711 -30.505 -24.9545 52.4713 -46.505 -24.9449 43.4745 -55.505 -24.7049 
27.48 -55.505 -24.2877 27.4798 -46.505 -24.2931 39.4757 -46.505 -24.606 
43.4743 -42.505 -24.7126 43.4741 -30.505 -24.7198 28.0795 -46.4912 -1.30094 
24.0808 -42.4912 -1.19904 24.0806 -30.4912 -1.20621 28.0792 -26.4912 -1.31288 
40.0751 -26.4912 -1.62574 44.0738 -30.4912 -1.72764 40.0754 -46.4912 -1.6138 
44.074 -42.4912 -1.72047 23.3245 -31.3085 -30.1959 23.3247 -41.7085 -30.1896 
-3.16631 -41.7085 -29.4987 -3.16647 -31.3085 -29.505 38.5193 -26.5085 -30.595 
28.1228 -26.5085 -30.3239 28.1224 -0.00855 -30.3397 38.5189 -0.00855 -30.6108 
24.0808 -42.4912 -1.19904 24.0806 -30.4912 -1.20621 28.0792 -26.4912 -1.31288 
40.0751 -26.4912 -1.62574 -44.896 -26.4912 0.59035 -32.9001 -26.4912 0.27749 
-28.9014 -30.4912 0.17559 -28.9012 -42.4912 0.18276 -33.969 -26.5157 -40.7086 
-45.965 -26.5157 -40.3957 -45.1652 -26.5157 -40.4165 -44.8524 -26.5085 -28.4206 
-34.4559 -26.5085 -28.6918 -34.7688 -26.5157 -40.6877 -29.9701 -42.5157 -40.8033 
-29.9703 -30.5157 -40.8105 -29.9703 -31.3157 -40.81 -29.6575 -31.3085 -28.8141 
-29.6573 -41.7085 -28.8078 -29.9701 -41.7157 -40.8038 -49.494 -42.505 -22.288 
-49.4942 -30.505 -22.2951 -45.4953 -46.505 -22.3899 -33.4994 -46.505 -22.7027 
-44.8528 -0.00855 -28.4365 -34.4563 -0.00855 -28.7076 -34.7692 -0.01572 -40.7035 
-45.1656 -0.01572 -40.4324 -3.16647 -31.3085 -29.505 -3.16631 -41.7085 -29.4987 
-3.47933 -31.3157 -41.5009 -3.47917 -41.7157 -41.4947 -33.4993 -55.505 -22.6974 
-49.4939 -55.505 -22.2802 -58.4909 -46.505 -22.0509 -58.4912 -30.505 -22.0605 
-58.9605 -30.5157 -40.0544 -49.9635 -30.5157 -40.289 -58.9602 -46.5157 -40.0448 
-33.9687 -46.5157 -40.6966 -33.9686 -55.5157 -40.6912 -49.9631 -55.5157 -40.2741 
-45.6307 -46.1685 31.1317 -46.928 -45.3014 31.165 -47.7948 -44.0037 31.1868 
-48.0993 -39.473 31.192 -48.0993 -36.473 31.1902 -48.0994 -33.473 31.1884 
-48.0994 -27.423 31.1848 -48.0995 -24.373 31.183 -48.0995 -21.323 31.1812 
-48.0996 -18.273 31.1794 -48.0996 -15.223 31.1775 -48.0997 -12.173 31.1757 
-48.0997 -9.12299 31.1739 -48.0998 -6.073 31.1721 -48.0998 -3.023 31.1702 
-48.0999 0.027 31.1684 -48.0999 3.077 31.1666 -48.1 6.127 31.1648 
-48.1 9.177 31.163 -48.1001 12.227 31.1611 -48.1001 15.277 31.1593 
-48.1002 18.327 31.1575 -48.1002 21.377 31.1557 -48.1003 24.427 31.1539 
-48.1003 27.477 31.152 -48.1004 33.527 31.1484 -48.1004 36.527 31.1466 
-48.1005 39.527 31.1448 -47.7962 44.0577 31.1342 -46.9294 45.3554 31.1108 
-45.6322 46.2225 31.0765 -41.103 46.527 30.9582 -38.104 46.527 30.8799 
-35.105 46.527 30.8017 -29.0571 46.527 30.644 -26.0081 46.527 30.5645 
-22.9592 46.527 30.4849 -19.9102 46.527 30.4054 -16.8612 46.527 30.3259 
-13.8123 46.527 30.2464 -10.7633 46.527 30.1669 -7.71434 46.527 30.0874 
-4.66538 46.527 30.0078 -1.61642 46.527 29.9283 1.43255 46.527 29.8488 
4.48151 46.527 29.7693 7.53047 46.527 29.6898 10.5794 46.527 29.6103 
13.6284 46.527 29.5307 16.6774 46.527 29.4512 19.7263 46.527 29.3717 
22.7753 46.527 29.2922 25.8242 46.527 29.2127 31.8722 46.527 29.0549 
34.8712 46.527 28.9767 37.8702 46.527 28.8985 42.3993 46.2225 28.7806 
43.6966 45.3554 28.7472 44.5634 44.0577 28.7254 44.8679 39.527 28.7202 
44.8679 36.527 28.722 44.868 33.527 28.7237 44.8681 27.477 28.7274 
44.8681 24.427 28.7292 44.8682 21.377 28.731 44.8682 18.327 28.7328 
44.8683 15.277 28.7347 44.8683 12.227 28.7365 44.8684 9.177 28.7383 
44.8684 6.127 28.7401 44.8685 3.077 28.7419 44.8685 0.027 28.7438 
44.8685 -3.023 28.7456 44.8686 -6.073 28.7474 44.8686 -9.12299 28.7492 
44.8687 -12.173 28.751 44.8687 -15.223 28.7529 44.8688 -18.273 28.7547 
44.8688 -21.323 28.7565 44.8689 -24.373 28.7583 44.8689 -27.423 28.7602 
44.869 -33.473 28.7638 44.8691 -36.473 28.7656 44.8691 -39.473 28.7674 
44.5648 -44.0037 28.778 43.698 -45.3014 28.8014 42.4008 -46.1685 28.8357 
37.8716 -46.473 28.9541 34.8726 -46.473 29.0323 31.8736 -46.473 29.1105 
25.8257 -46.473 29.2682 22.7767 -46.473 29.3477 19.7278 -46.473 29.4272 
16.6788 -46.473 29.5068 13.6298 -46.473 29.5863 10.5809 -46.473 29.6658 
7.53192 -46.473 29.7453 4.48296 -46.473 29.8248 1.434 -46.473 29.9044 
-1.61497 -46.473 29.9839 -4.66393 -46.473 30.0634 -7.71289 -46.473 30.1429 
-10.7619 -46.473 30.2224 -13.8108 -46.473 30.302 -16.8598 -46.473 30.3815 
-19.9087 -46.473 30.461 -22.9577 -46.473 30.5405 -26.0067 -46.473 30.62 
-29.0556 -46.473 30.6995 -35.1036 -46.473 30.8573 -38.1026 -46.473 30.9355 
-41.1015 -46.473 31.0137 28.7081 46.5232 22.802 28.7906 46.5251 25.9675 
28.1562 46.5106 1.64249 28.2345 46.5123 4.64147 28.3127 46.5141 7.64045 
28.3909 46.5159 10.6394 28.4691 46.5177 13.6384 28.5473 46.5195 16.6374 
31.077 46.5088 -1.43471 34.076 46.5088 -1.51292 37.075 46.5088 -1.59114 
40.1522 46.5106 1.32963 40.2304 46.5123 4.32861 40.3086 46.5141 7.32759 
40.3868 46.5159 10.3266 40.465 46.5177 13.3256 40.5432 46.5195 16.3245 
40.704 46.5232 22.4891 40.7866 46.5251 25.6547 -32.2712 46.5232 24.3923 
-32.1886 46.5251 27.5579 25.5766 46.5213 19.7159 22.5276 46.5213 19.7954 
19.4786 46.5213 19.8749 16.4297 46.5213 19.9544 13.3807 46.5213 20.034 
10.3317 46.5213 20.1135 7.28279 46.5213 20.193 4.23383 46.5213 20.2725 
1.18487 46.5213 20.352 -1.8641 46.5213 20.4315 -4.91306 46.5213 20.5111 
-7.96202 46.5213 20.5906 -11.011 46.5213 20.6701 -14.0599 46.5213 20.7496 
-17.1089 46.5213 20.8291 -20.1579 46.5213 20.9087 -23.2068 46.5213 20.9882 
-26.2558 46.5213 21.0677 -29.3048 46.5213 21.1472 -44.2671 46.5232 24.7052 
[...]
CELL_DATA 12638
SCALARS cell_scalars float
LOOKUP_TABLE default
-10304 -9938.2 -10237 -10210 -9924.1 -10249 -10203 -9642.5 -9888.4 
-9300 -9641.2 -9016.6 -9331.2 -8751.5 -9033.2 -8511.5 -9038.7 -8389.8 
-8898.1 -8107 -8685.5 -8469.7 -9163.6 -8898 -9418.2 -9153.2 -9693.6 
-9407.5 -9907.1 -9631.2 -10093 -9762.3 -10169 -9874.3 -10215 -9807.3 
-10073 -9591.1 -9906.9 -9359 -9751.4 -9126.9 -9575.3 -8870.8 -9351.6 
-8613 -9028.2 -8367.1 -8937.2 -8160.5 -8766.2 -8494 -8978 -8833.9 
-9288 -9143.8 -9573.8 -9323.8 -9762.3 -9551.8 -9938.5 -9695.5 -10075 
-9827.6 -10365 -10395 -10162 -10376 -10317 -10034 -10336 -9960.3 
-10275 -9943.5 -10268 -9898.5 -10237 -9913.9 -10254 -9902.2 -10244 
-9919.2 -10245 -9914.8 -10247 -9918.8 -10268 -9922.5 -10283 -9940.8 
-10321 -9945.6 -10294 -9935.1 -10311 -9956.2 -10319 -9936 -10316 
-9934.8 -10316 -9903.2 -10299 -9908 -10285 -9903.4 -10267 -9874.4 
-10227 -9866 -10213 -9859.6 -10213 -9840.1 -10220 -9828.6 -10196 
-9824.6 -10200 -9830.8 -10193 -9840.2 -10209 -9868.1 -10257 -9939.2 
-10225 -10236 -10047 -10350 -10397 -10030 -10241 -9760.7 -10019 
-9639.3 -9868.3 -9426.1 -9705.8 -9267 -9492.9 -8925 -9131.9 -8645.4 
-8958 -8354.4 -8814.6 -8391.1 -9068.6 -8474 -9174 -8781.7 -9394.9 
-8945.9 -9566.1 -9165 -9739 -9437.2 -9938.6 -9668.2 -10115 -9872.7 
-10183 -9808.2 -10108 -9714 -10013 -9547.5 -9828.7 -9316.6 -9604.6 
-9043.3 -9381.3 -8659 -8928.5 -8223.6 -8768.1 -8254.8 -9038.6 -8476.5 
-9045.1 -8604.9 -9196 -8788.2 -9396.7 -9079.8 -9699.9 -9488.5 -10157 
-10181 -9798.3 -10147 -10078 -9688.8 -10033 -9616 -10022 -9552.7 
-9956.1 -9535 -9962.9 -9532.7 -9969.2 -9536.9 -9991.2 -9578.9 -9970.9 
-9568.7 -9993.3 -9593 -10012 -9580.7 -9976.2 -9602.9 -10023 -9623 
-10015 -9620.5 -10020 -9608.1 -10030 -9617.6 -10021 -9623.3 -10026 
-9639.1 -10041 -9640.4 -10046 -9649.2 -10031 -9649.1 -10051 -9652 
-10048 -9645 -10040 -9661.8 -10049 -9650.5 -10054 -9659.8 -10040 
-9649.9 -10056 -9661.1 -10059 -9743.2 -9639.1 -9269.8 -9256 -9089.9 
-9151.2 -9050.1 -9662.5 -9667.9 -9491.4 -9607.6 -9463.8 -9677.3 -9724.9 
-9676.3 -9430.7 -9445.8 -8758.3 -8874.8 -8521.3 -8584.9 -8309.6 -8327.6 
-8174.7 -8156.3 -7990.7 -8010.7 -7997.1 -7891.7 -8329.2 -8265.1 -8731.6 
-8518.1 -8973.3 -8836.5 -9220.2 -9067.2 -9360.1 -9251.6 -9532.1 -9432.1 
-9629.7 -9522.3 -9422.3 -9526.2 -9152.1 -9267.6 -8894.5 -8991.1 -8647.2 
-8752.8 -8417 -8492 -8224.5 -8279.8 -8141.9 -8129.4 -8158.4 -8049.1 
-8456 -8303.3 -8754.9 -8588.2 -9028.9 -8890 -9182.1 -9094.5 -9358.4 
-9254.5 -9476.9 -9301.4 -9466 -9107.5 -8996.2 -9100.3 -8982.7 -9093.1 
-8998.1 -9057.4 -8960.4 -9085.7 -8954.9 -9077.5 -8954.6 -9094.9 -8991.3 
-9104.7 -9001.8 -9105.6 -9017.7 -9117.4 -9026.8 -9135.8 -9024.1 -9122.7 
-9030.6 -9134.6 -9039.1 -9151.9 -9040.7 -9149.5 -9032.6 -9168.8 -9051 
-9155.6 -9058.5 -9170.6 -9052.6 -9187 -9054.6 -9178.7 -9056.5 -9186.5 
-9056.8 -9162.6 -9049.1 -9207.2 -9068.4 -9224.1 -9062.4 -9248 -9110.8 
-9591.5 -9433.2 -9528.1 -9400 -9550.1 -9407.6 -9544.9 -9422 -9638 
-9471.4 -9622 -9524.2 -9641.1 -9559.5 -9637.2 -9565.8 -9643.7 -9565.7 
-9642.4 -9564 -9646.3 -9559.8 -9647.2 -9579.1 -9675.4 -9561.8 -9661 
-9572.2 -9648.9 -9574.4 -9657.9 -9591.3 -9666.9 -9614.4 -9647.7 -9593.9 
-9667 -9603.1 -9661.5 -9600.5 -9631.5 -9591.2 -9586 -9547.9 -9575.4 
-9510.1 -9582 -9496.9 -9568.5 -9509.5 -9607.1 -9507.9 -9437.1 -9364.9 
-9260.4 -9264 -9089.2 -9086.6 -8829.2 -8899.7 -8553.1 -8673.2 -8213 
-8355.3 -8068.1 -7946.8 -8153.2 -8104.8 -8337.2 -8240 -8561.1 -8419.5 
-8804.2 -8647.1 -9046.2 -8881 -9316.7 -9162.9 -9573.2 -9421.2 -9575.7 
-9575.7 -9434.2 -9463.9 -9309.1 -9346.4 -9073 -9184.8 -8850.9 -8956.3 
-8566.4 -8671.6 -8098.3 -8288.6 -7982.7 -7920.8 -8067.3 -8008.1 -8132.4 
-8103.5 -8405.7 -8246.8 -8655.1 -8494.6 -8962.7 -8762 -9287.2 -8847 
-9579.7 -9409.8 -9066.4 -9359.7 -9349.6 -8824.7 -8743.4 -8484.6 -8613.1 
-9261.1 -9312.6 -9241.6 -9312.6 -8248.7 -8354.8 -9108.2 -9150.4 -9104.1 
-9218.9 -8038.6 -8160.4 -8925.4 -9008.8 -7952 -7961.8 -7990.6 -7854.5 
-8341.6 -8071.7 -8615.9 -8391.9 -8798 -8732.2 -9066.9 -8987.4 -9242.1 
-9208.9 -9409.7 -9345.6 -9502.8 -9469.3 -9495.9 -9544.2 -9224.6 -9336.8 
-8936.9 -9068.9 -8680.2 -8800.8 -8456.3 -8559.3 -8255.5 -8311.7 -8057.2 
-8121.6 -7929.5 -7972.3 -8458.9 -8098 -8581.1 -8461.3 -8887.9 -8777.6 
-9033.7 -8880.6 -8652.1 -8818.1 -8394.3 -8528.4 -8021.4 -8241.5 -8092 
-8041.4 -8197.8 -8094.6 -8377.9 -8228.8 -8622.6 -8476.2 -8860 -8715.2 
-9135.1 -8982 -9397.1 -9255.7 -9558.7 -9510.9 -9424 -9475 -9302.7 
-9380.1 -9152.8 -9221.6 -8918.1 -9069.8 -8704.8 -8827 -8350.8 -8607.9 
-8064.5 -8267.4 -7926.3 -7820.2 -8067.9 -8003.3 -8281.3 -8143.4 -8373.6 
-8312 -9187.4 -9132.1 -8687.3 -8498.1 -8794.6 -8710.7 -8779.1 -8707.3 
-8776.5 -8708.8 -8836.4 -8687.8 -8797.3 -8759 -8796.9 -8696.2 -8794.5 
-8690.8 -8810.3 -8734 -8814.6 -8716.5 -8811 -8730.7 -8830.9 -8751.1 
-8838.7 -8746.4 -8840.7 -8736.6 -8833.8 -8767.5 -8864.9 -8777.9 -8871.9 
-8778.6 -8886.4 -8781.1 -8892 -8808.9 -8911.2 -8838.4 -8894.3 -8845.4 
-8889.5 -8822.5 -8918.2 -8798.5 -8859 -8825.5 -8872.5 -8790.7 -9306.2 
-9285.5 -9299.6 -9281.1 -9382.7 -9337.3 -9368.8 -9374.3 -9354.7 -9348.2 
-9467.4 -9349.6 -9460.8 -9391.5 -9446 -9403.8 -9460.5 -9397.9 -9444.4 
-9428.4 -9478.6 -9402.6 -9450.5 -9399.1 -9447.1 -9406.7 -9456.5 -9412.5 
-9448.5 -9407.5 -9461.5 -9406.7 -9440 -9397.1 -9409.6 -9370.6 -9412.3 
-9368.9 -9396.8 -9366 -9418.5 -9364.8 -9438.8 -9403.6 -9379.2 -9383.1 
-9373.9 -9348.2 -9346 -9295 -9286.1 -8575.7 -9106.5 -9157.4 -9013 
-8760.5 -8888.8 -9368.9 -9358.7 -9309.8 -9261.5 -9270.2 -9173.7 -9215.3 
-9253.9 -9216.3 -9004.3 -9034.5 -8363.2 -8455.8 -8515.8 -8440.5 -8199.9 
-8207.8 -8114.6 -8085.2 -8880 -8942.2 -8548.6 -8474.4 -9296.7 -9189.9 
-7973.4 -8058.8 -8594.6 -8743.7 -8817.7 -8932 -8065.9 -7943.6 -8406.4 
-8267.1 -8738.3 -8554.5 -9029.9 -8938.9 -9238.8 -9111.7 -9396.8 -9289.4 
-9488.7 -9424.5 -9554 -9543 -9314.5 -9429.1 -9024 -9188.7 -8749.8 
-8898 -8504.5 -8631.5 -8257.1 -8398.9 -8078.9 -8180.1 -7983.6 -8014.9 
-7968.2 -8006.1 -8366.9 -8199.6 -8772.8 -8607.9 -8959.6 -8817.9 -9117.2 
-8999 -8268.2 -8473.8 -7913.5 -8062.6 -8004.1 -7963.3 -8194.3 -8094.4 
-8410.1 -8291.8 -8660.1 -8520.5 -8921.8 -8775.8 -9212.9 -9057.9 -9479.8 
-9326.2 -9512.4 -9573.6 -9427.1 -9484.2 -9311.5 -9369.3 -9112.1 -9202.9 
-8910.7 -9039.7 -8640.4 -8770.8 -8223.3 -8396.1 -7973 -7875.8 -7960.1 
-7950.1 -8123.1 -8079.6 -8310.9 -8196.9 -8535.3 -8409.3 -8531.7 -8474.2 
-8578.1 -8475.4 -8609.5 -8502.3 -8585 -8555.3 -8572.9 -8526.5 -8585.2 
-8489.8 -8622.1 -8494.3 -8630.5 -8525.1 -8632.8 -8545.2 -8650.3 -8575.1 
-8664 -8588 -8662.8 -8615.5 -8655.6 -8617.7 -8675.8 -8615.8 -8693.4 
-8611.8 -8698.9 -8616.6 -8694.8 -8614 -8691.3 -8603.6 -8701.4 -8616.4 
-8663.7 -8577.7 -8681.7 -8591.8 -9261.6 -9250.9 -9357 -9220.9 -9307.9 
-9302.8 -9273.2 -9263.1 -9286.2 -9286.6 -9324.8 -9285.2 -9305.7 -9265.1 
-9308.7 -9274.2 -9299.2 -9264 -9301.1 -9273.4 -9292.9 -9282.1 -9298.7 
-9300.4 -9298.4 -9276.8 -9325.6 -9288 -9398.4 -9327.4 -9407.8 -9373.5 
-9391.4 -9391.6 -9369.3 -9365.5 -9312.3 -9314.4 -9290.2 -9275.5 -9267.5 
-9284 -9287.3 -9218.4 -8936.6 -8868 -8703 -9290.1 -9250.6 -8625.5 
-8651.5 -8613 -9199.7 -9129.1 -8372.2 -8451.7 -9158.6 -9152 -9061.6 
-9149.5 -9131.8 -8259.9 -8341.9 -8372.9 -8082.1 -8158.3 -7915.3 -7977.7 
-7929.1 -7909 -8891 -8977.8 -8630.2 -8795.6 -8313.3 -8579.7 -8215.4 
-8289.8 -9160.5 -9114.7 -9034.5 -9062.7 -8412.5 -8388.7 -9231.1 -9155.5 
-8014.4 -8104.7 -8767 -8956 -8403.9 -8352 -8213.4 -7997.9 -8003.4 
-8273.6 -9182.6 -9234.7 -9213.3 -9148.6 -9248.9 -9194.6 -9291.2 -9204.7 
-9279.3 -9211.4 -9274.8 -9223.6 -9277.6 -9229.2 -9273.9 -9262.3 -9284.5 
-9245 -9268.7 -9214.8 -9245.7 -9202.8 -9232.9 -9176.2 -9189.6 -9201.1 
-9235.9 -9175 -9216.5 -9119.7 -8423.3 -8388 -8425.6 -8348 -8444.2 
-8335.4 -8438.2 -8350.2 -8409.9 -8350.6 -8422 -8349.4 -8435.9 -8361.1 
-8444.7 -8326.1 -8455 -8363.7 -8444 -8351.7 -8452.9 -8372.8 -8442.6 
-8362.7 -8437.8 -8372.2 -8424.8 -8401.1 -8446.8 -8366.3 -8606.4 -8774.6 
-8330 -8550 -8015.1 -8093 -8148.5 -8071.5 -8297.4 -8199.3 -8479.4 
-8383.9 -8705.7 -8573.6 -8964.9 -8854.4 -9234.1 -9106.1 -9473.9 -9371.2 
-9480.6 -9484.2 -9346.6 -9385.1 -9219.8 -9265.2 -9099.1 -9136.9 -8889.2 
-8958 -8602.8 -8763.7 -7917.7 -7982.5 -8027 -7852.8 -8293 -8299 
-8613.8 -8498.6 -8912.3 -8738.4 -9178.3 -8996 -9351.5 -9242.6 -9477.9 
-9409.1 -9545.4 -9495.7 -9333.2 -9455.7 -9064.6 -9211.4 -8794.2 -8946.9 
-8529.2 -8657.1 -8324.3 -8423.1 -8179.2 -8281.4 -8026.2 -8085.1 -9244.8 
-9179.8 -8402.7 -8376.3 -9178.7 -9160.3 -8362.4 -8279 -9210.9 -9100.1 
-8368.1 -8335.4 -9121.3 -9140.4 -8384.3 -8315.3 -8452.3 -7996.2 -8302.4 
-9078.8 -8963.6 -9044 -8147.5 -8242.3 -8294.2 -8261.8 -8107.8 -8266.6 
-9067.3 -9065.7 -8966.7 -9079.1 -7979.1 -8082.3 -7899 -7932.1 -7997.8 
-8711.5 -8845.5 -8472.3 -8797.1 -8156.6 -8442.6 -8187.7 -8125.9 -9062.6 
-8976.8 -8194.4 -8115 -8129.6 -8127.2 -8197.7 -8095.8 -8198.9 -8153.7 
-8191.3 -8067.9 -8166.3 -8152.1 -8157.6 -8104.4 -8202.2 -8118.9 -8151.2 
-8123 -8209.3 -8157 -8170 -8156.5 -8190.1 -8159.2 -8284.3 -8199.7 
-8297.9 -8270 -8254.9 -8208.9 -8260.3 -8256.2 -8314.3 -8260.7 -8238.7 
-8188.1 -9053.6 -8959.8 -8977.4 -8956.5 -9113.9 -9018.7 -9081.2 -9050.2 
-9158.9 -9013.9 -9101.7 -9080.8 -9091.6 -9088.5 -9108.9 -9047.7 -9092.5 
-9039.4 -9113.6 -9025.9 -9058.1 -8987 -9051 -8982.7 -9070.4 -8992.9 
-9090.1 -9007.5 -9095.7 -9074.1 -9161 -9109.3 -9134 -9084.4 -9103.4 
-9062.7 -8798.7 -8869.8 -8342.4 -8582.3 -8212.8 -8226.8 -7927.3 -7969 
-8088.5 -8028.8 -8273.4 -8162.2 -8490.7 -8373.2 -8753.8 -8599.2 -9040.7 
-8880.9 -9289.6 -9170 -9563.1 -9468.1 -9487.8 -9527.5 -9376.8 -9431.8 
-9176.7 -9299.2 -8949 -9044.5 -8670.4 -8826.9 -7995.5 -8064.3 -8038.1 
-8047.1 -8244.4 -7927.6 -8623.2 -8399 -8917.6 -8810.6 -9113.7 -9040 
-9195.2 -9195 -9343.6 -9309.1 -9456.7 -9405.7 -9473.8 -9498.4 -9260 
-9381 -8972.2 -9088.7 -8718.6 -8831.6 -8481.6 -8590.4 -8236.9 -8335.3 
-8116.5 -8130.8 -8890.4 -8081.4 -8994.6 -8834.3 -8945.1 -8174.3 -8166.7 
-8073.2 -8070 -8013.4 -8048 -8566.3 -8374.6 -8098.5 -8191.1 -8055.6 
-8053.1 -8007.8 -8856.7 -8768.1 -8636.8 -8365.6 -8557.6 -8075.4 -8053.4 
-7989.7 -7981.1 -8044.6 -7981.3 -7971.2 -8006.6 -8080.6 -8016.4 -8027.1 
-7990.1 -8063 -8021 -8114.1 -8098.6 -8160.8 -8159.7 -8152.5 -8129 
-8142.1 -8124.5 -8110.5 -8115.9 -8054.2 -8007 -8111.6 -8013.5 -8165.9 
-8067.8 -8172.6 -8107 -8085.6 -7985.7 -8864.8 -8799.2 -8806 -8718 
-8836.8 -8844.7 -8801.9 -8724.2 -8830.4 -8732.2 -8830.9 -8667.9 -8802.3 
-8716.8 -8800.5 -8778 -8858 -8810 -8882.3 -8834.6 -8862.7 -8841.2 
-9005.3 -8895.5 -8984.5 -8944.9 -8956.2 -8919.8 -8885.3 -8825.4 -8927 
-8869.1 -8905.1 -8885.4 -8631 -8737 -8204.9 -8541 -8050.7 -7952.5 
-8159.1 -8059.5 -8269.4 -8178.8 -8419.8 -8343.2 -8633.7 -8551.4 -8908 
-8806.2 -9168.8 -9033.6 -9459.8 -9303.4 -9547.9 -9549.6 -9408.8 -9481.7 
-9271.2 -9352.1 -9113.4 -9195.3 -8932.2 -9067.6 -7849.9 -7940.9 -8051 
-8056.6 -7889.8 -8335.9 -8275.1 -8644.6 -8523 -8956.9 -8770 -9205.6 
-9056.9 -9342.7 -9259.4 -9476.8 -9432.5 -9553.3 -9545.3 -9310.8 -9456.3 
-9053.1 -9161.9 -8784.9 -8916.8 -8553.1 -8634.2 -8303.1 -8407.9 -8104 
-8218.8 -8108.1 -8049.6 -8875.4 -8747.7 -7968 -7942.1 -7819.6 -7888.7 
-7971.9 -7956 -7909.7 -7953.2 -7983.9 -8547.1 -8496.6 -8001.4 -7921.1 
-7972.5 -8180.6 -8000 -7967.6 -8068.5 -7913.8 -8030.3 -7976.1 -7860.1 
-8073.3 -7884.7 -7958.5 -8066.4 -7891.9 -7916.7 -7917.2 -7859.2 -7864.3 
-7806.9 -7900.1 -7833.8 -7911.3 -7841.1 -7962.8 -7964.2 -8052.8 -8011 
-8697 -8585.1 -8270 -8456 -8055.5 -7987.2 -8070 -8005.4 -7974.5 
-8006.4 -8526.4 -8631.5 -8743.6 -8587.6 -8829.7 -8672.7 -8714.8 -8723.5 
-8728.5 -8688.2 -8690.8 -8656.6 -8663.4 -8505.3 -8782.8 -8613.8 -8786.7 
-8664.6 -8727.3 -8694 -8722.8 -8600.8 -8674.1 -8695.5 -8685.6 -8676.9 
-8688.7 -8603.3 -8615.5 -8538.1 -8554.2 -8524.5 -8645.4 -8511 -8066.5 
-8346.6 -7901.8 -7975.8 -8109.2 -7967.8 -8251.7 -8118.3 -8541.4 -8418.7 
-8813.4 -8660.6 -9045.5 -8901.8 -9348 -9202.7 -9499.7 -9438 -9428.4 
-9492.4 -9300.6 -9357 -9135 -9222.5 -8978.2 -9056.1 -8188.7 -8031.5 
-8536.3 -8399.6 -8895 -8783.6 -9062 -8969.1 -9192.2 -9126.3 -9386.2 
-9284.2 -9473.3 -9408.1 -9482.6 -9508.8 -9236.1 -9384 -8956.7 -9114.6 
-8683 -8818.9 -8441.5 -8562.9 -8290 -8379.6 -7973.6 -8197.9 -8540.3 
-7948.5 -7989 -7945.7 -7933.5 -7970.4 -7959.3 -8059.5 -8027.6 -8140.9 
-8288.4 -8526 -8257.7 -8412 -8392.1 -8270.2 -8772.9 -8636.8 -8941.3 
-7982.6 -8070.9 -7929.9 -7947.7 -8134.3 -8062 -8208.7 -8348.2 -8232.3 
-8521.3 -8374.6 -8497.7 -8408 -8370.7 -8388.7 -8530.5 -8386.3 -8365 
-8368.4 -8302.3 -8249.1 -8264.4 -8216.3 -8352.6 -8153.9 -8249.8 -8137.6 
-8349.3 -8091.5 -8436.1 -8181.7 -8356.2 -8269.7 -8445.1 -8302.8 -8315.2 
-8174.6 -8038.6 -8011 -8205.3 -8164.5 -8408.5 -8307.3 -8639.8 -8548.6 
-8846.4 -8729.6 -9166.4 -9007 -9394.7 -9303 -9501.4 -9498.1 -9397.6 
-9454.9 -9283.6 -9354.7 -9110.1 -9223.5 -8741.6 -8579.1 -8947.9 -8852 
-9166.1 -9025.4 -9336.7 -9260.1 -9412.3 -9404.6 -9537.9 -9475.2 -9382.4 
-9513.6 -9067.2 -9219.1 -8799.2 -8938.8 -8539.9 -8668.5 -8303.4 -8429.4 
-7895.3 -7897.8 -7929.5 -7984.6 -7918.2 -7934.9 -7844.9 -7902.4 -7821.4 
-7953.6 -7874 -7948.2 -7850.3 -7997.8 -7924.3 -7982.2 -7948.2 -8078.6 
-7974.8 -8193.7 -7948.3 -8003.8 -8029.3 -8195.2 -8393.7 -8271.2 -8088.3 
-8099.5 -8194.4 -8005.3 -8148.5 -8042.7 -7969.6 -8171.5 -8273.8 -8028.2 
-8557 -8419 -8181.5 -8118.5 -8131.2 -8076.3 -8842.9 -8706.2 -8297.6 
-8072.2 -8321.1 -8219.5 -9079.4 -8918.5 -8048.1 -8174.4 -8157.2 -8204.1 
-8180.8 -7933.9 -8255.7 -8106.2 -8157 -8107.1 -8164.7 -8130.3 -8132.5 
-8134 -8121.5 -7994.4 -7987.9 -8017.9 -7949.9 -7974.2 -7946.8 -8049.6 
-8089.8 -8025.8 -8939.1 -8897.2 -8619.6 -8652.2 -8372.2 -8574.6 -8033.8 
-7996.3 -8184.9 -8085 -8521.7 -8379.8 -8775.1 -8649.7 -9059.7 -8912.1 
-9292 -9202.5 -9523.8 -9412.6 -9473.6 -9518.4 -9389.2 -9429.3 -9245.1 
-9305.7 -9203.3 -9136.1 -9419.3 -9337.4 -9476.1 -9454 -9522 -9527.8 
-9237 -9374.5 -8955.6 -9091.1 -8677 -8833.8 -8459.1 -8542.9 -8221.5 
-8096.8 -8022 -8029.3 -8179.3 -8267.9 -8268.4 -8304.2 -8091 -8240.2 
-8211.8 -8275.1 -8104 -8235.5 -8228.2 -8346 -8077.2 -8252.8 -8241.3 
-8283.1 -8285.3 -8324.9 -8257.3 -8362.5 -8043 -8451.8 -7886.3 -7988.2 
-7983.9 -8085.2 -8093.3 -8164.3 -7986.3 -8023.7 -7993.2 -8115.5 -8060.9 
-8276.5 -8194.4 -8362.6 -8517 -8500.5 -8752.8 -8665.2 -8915.2 -9156.7 
-9037 -8762.9 -9026.8 -8505.3 -8690.5 -8323.7 -8308.4 -8295.6 -8310.9 
-8459 -8557.6 -8496.9 -8592.5 -8520.3 -8629.4 -8561.7 -8722.8 -8527.5 
-8645.1 -8557.1 -8596 -8545.3 -8592.3 -8644.1 -8626.2 -8514.7 -8656.7 
-8566.8 -8638.5 -8376.2 -8297.4 -8594.2 -8486 -8867 -8725.9 -9163.5 
-8984.1 -9456.4 -9291.8 -9452.4 -9482.2 -9351.6 -9400.3 -9203.5 -9284.2 
-9124.9 -9044.3 -9295.3 -9234.2 -9461.3 -9319 -9582.6 -9518.5 -9351.1 
-9542.9 -9088.9 -9205.4 -8826.5 -8936.7 -8594.6 -8690.1 -8073.4 -8034.5 
-7923 -8005.6 -8108.9 -8025 -8048.7 -8128.1 -7975.7 -8110.4 -8032.3 
-8072.7 -7987.1 -8041.1 -7945.4 -7965.1 -7936.2 -7998.1 -7955.8 -8034.1 
-7950.9 -7954.9 -8000.8 -8106 -8248.5 -8158.7 -8052.7 -7967.9 -8041.8 
-8153.4 -8162 -8660.5 -8435.8 -8534.6 -8667.8 -8655.9 -8863.4 -8857.4 
-8304.1 -8277.9 -8471.5 -8719.2 -8853 -8931.3 -9033.9 -8917.2 -9154.1 
-8770.5 -8773.7 -8694.1 -8839.4 -8680.7 -8779.2 -8637.1 -8704.1 -8725 
-8795.8 -8772.4 -8823.3 -8750.3 -8827.3 -8755.8 -8783.5 -8793.9 -8858.6 
-8507.7 -8366.4 -8068.7 -8115 -8037.1 -8091.4 -7969.9 -8014.2 -8057.8 
-8049.1 -8089.2 -8117.8 -8089.6 -8096.5 -8143.9 -8146.8 -8138.5 -8139.6 
-8097.9 -8192.4 -8082.3 -8136.9 -8754.2 -8656 -8993.3 -8840.4 -9261.6 
-9129.4 -9499.3 -9397.6 -9486.2 -9533.2 -9378.9 -9454.7 -9209.6 -9161.4 
-9081.9 -9390.8 -9330.9 -9464.6 -9434.3 -9518.5 -9524.4 -9259.7 -9399.7 
-8966.1 -9112.7 -8651.3 -8833.6 -8981 -8724.8 -8207.3 -8094.6 -8152.5 
-8278.4 -8869.6 -8811.4 -8906.6 -9019.7 -9207.3 -9140.6 -9323.2 -9293.1 
-9431 -9397.6 -8360.8 -8287.8 -8153.1 -8236.6 -8198.5 -8258.3 -9513 
-9501.5 -8207.6 -8307.3 -9010.2 -8901.8 -9197.3 -9116.4 -9295.3 -8937.9 
-8978.3 -8433.4 -8307.9 -8521.9 -8238.6 -8373.3 -8229.9 -8315.7 -8187.5 
-8261.2 -8182.1 -8257.7 -8168.1 -8225.5 -8210.8 -8254.3 -9375.7 -9485.7 
-9061 -9222 -8810 -8941.5 -8966.9 -9049.1 -9016.4 -9093.7 -8939.5 
-9024.2 -8924.6 -9017.9 -8947.5 -8996.5 -8956.6 -9045.6 -8619.5 -8449.2 
-8904.5 -8764.1 -9147 -9024.6 -9438 -9310.5 -9527.9 -9553.9 -9439.3 
-9482.9 -8305.7 -8454.4 -8370.2 -8379.3 -9050.7 -9027.9 -9144.6 -8574.3 
-8479.9 -8691.5 -8418.4 -8482.4 -8394.6 -8423.6 -8456 -8444.1 -8377.4 
-8503.3 -9157.7 -9149.8 -9327.7 -9283.3 -9427.2 -9387.3 -9486.6 -9255.4 
-9180.3 -9350.5 -8721.1 -8621.4 -8404.1 -8454 -9167.9 -9229.4 -8400.6 
-8422.4 -9067.2 -9143.2 -9133.3 -9128.9 -9167.5 -9218.8 -9135.5 -9218.2 
-9183.6 -9178.5 -8957.3 -8858.5 -9292.7 -9135.6 -9553.7 -9443.8 -9478.6 
-9522.5 -9490.9 -9521.5 -9256.7 -9371.3 -8987.9 -9118.4 -9298.2 -9264 
-8539.2 -8612.3 -8880.7 -8742.8 -9175.5 -9215.2 -9227.3 -8737.8 -8647.8 
-8879.6 -9446.4 -9408.8 -9543.9 -9490.2 -8550.3 -8662.4 -8597.7 -9278.9 
-9324.5 -9154.8 -9043.6 -9294.3 -9345 -9221.5 -9292.5 -9408.8 -9514.3 
-9393.8 -9293.4 -9312.7 -9299.7 -9263 -9336.8 -8414.8 -8441.2 -8437.9 
-9516 -9491.7 -9339.3 -9431.6 -9154.8 -9313.5 -8577.8 -8689.8 -8697.4 
-8608.4 -8643.9 -9256.4 -9229.6 -9316.5 -9396.8 -9349 -8805.2 -9015.6 
-8859.1 -8809.1 -9465.7 -9422 -9425 -9392.3 -9515.8 -9498.2 -9523.8 
-8623.3 -8558.2 -8747.4 -8526.9 -8629 -9406.5 -9405.5 -9376.8 -9426 
-9363.2 -9402.1 -9388.5 -9395.1 -8995.2 -8857.1 -9304.9 -9119.9 -9508.6 
-9402.7 -9319 -9461.7 -8777.8 -8722.8 -9394.9 -8636.6 -9510.9 -9486.3 
-9480.5 -8933.9 -8912.2 -9072.3 -9201.8 -8845.8 -8758.5 -9500.8 -9432.7 
-9568.8 -8810.2 -8850.6 -8840.1 -9493.7 -9506.4 -9476.1 -9509.9 -9141 
-9024.8 -9354.9 -9288.9 -9470.8 -8999.7 -9524.1 -9479.5 -9525.5 -9456.2 
-9334.8 -9524.9 -9415.9 -9476.9 -9191.7 -9306.3 -9049.9 -8980.6 -9126.5 
-9118.6 -9264.8 -9311.5 -9235.1 56031 61385 64108 65017 30839 
36290 39309 40289 7950.6 12643 15399 16108 -7383.8 -5402.4 
-3669.7 -3426.7 -10328 -10087 -9920.9 -9933.1 -10616 -10523 -10498 
-10559 -10734 -10675 -10682 -10755 -10778 -10757 -10770 -10807 
-10796 -10759 -10764 -10803 -10534 -10512 -10607 -10574 -10542 
-10832 -11079 -10494 -10870 -11745 -10479 -10937 -12463 -10458 
-10969 -12299 -10497 -10951 -12115 -10495 -10933 -11894 -10514 
-10936 -11606 -10470 -10927 -11442 -10479 -10906 -11358 -10533 
-10891 -11333 -10562 -10903 -11329 -10548 -10907 -11366 -10579 
-10881 -11400 -10681 -10873 -11432 -10639 -10900 -11368 -10597 
-10895 -11423 -10589 -10867 -11509 -10495 -10861 -11827 -10402 
-10854 -11611 -10421 -10795 -11025 -3855.2 -7525.7 -8970.6 -9582.8 
-9554 -9812.5 -9986.4 -10174 -10305 -10278 -10322 -10404 -10526 
-10487 -10493 -10526 -10635 -10603 -10597 -10604 -10692 -10669 
-10659 -10657 -10749 -10718 -10713 -10699 -10798 -10756 -10729 
-10739 -10751 -10738 -10748 -10734 -10378 -10374 -10333 -10410 
-10525 -10691 -10779 -10592 -10807 -10846 -10732 -10989 -11139 
-10700 -10923 -10967 -10650 -10741 -10757 -10685 -10746 -10729 
-10589 -10726 -10697 -10474 -10692 -10677 29512 28728 29646 
32157 3375.7 2739.1 3550.9 6021.7 -8628.8 -8520.9 -8358.8 -7953.3 
-10037 -9853.2 -9823.5 -9939.3 -10398 -10196 -10179 -10312 -10605 
-10473 -10418 -10450 -10657 -10627 -10627 -10623 -10766 -10733 
-10731 -10748 -10794 -10779 -10776 -10784 -10754 -10753 -10756 
-10766 -9755.3 -9584.8 -9579.9 -9726 -10157 -10080 -10073 -10146 
-10331 -10296 -10296 -10322 -10422 -10399 -10396 -10401 -10522 
-10500 -10501 -10506 -10562 -10537 -10542 -10547 -10589 -10588 
-10586 -10593 -10629 -10633 -10646 -10664 -10666 -10689 -10723 
-10743 -10492 -10508 -10486 -10489 -10759 -10803 -10879 -10770 
-10842 -11113 -10776 -10873 -11155 -10787 -10882 -11164 -10809 
-10887 -11185 -10838 -10888 -11165 -10895 -10886 -11152 -10890 
-10888 -11157 -10903 -10889 -11165 -10907 -10892 -11163 -10889 
-10903 -11162 -10881 -10904 -11162 -10870 -10898 -11151 -10850 
-10899 -11161 -10830 -10897 -11158 -10805 -10893 -11164 -10788 
-10887 -11159 -10777 -10879 -11149 -10774 -10856 -11077 -10767 