# vtk DataFile Version 4.2
vtk output
ASCII
DATASET UNSTRUCTURED_GRID
POINTS 8741 float
-48.8651 -42.4763 31.6277 -48.8653 -30.4763 31.6214 -48.8666 30.5237 31.5894 
-48.8669 42.5237 31.5832 -44.8701 46.5237 31.421 -32.8798 46.5237 30.9408 
28.0714 46.5237 28.4998 40.0618 46.5237 28.0196 44.0586 42.5237 27.8616 
44.0589 30.5237 27.8679 44.0602 -30.4763 27.8998 44.0604 -42.4763 27.9061 
40.0637 -46.4763 28.0683 28.0733 -46.4763 28.5485 -44.8682 -46.4763 31.4697 
-32.8778 -46.4763 30.9895 27.6912 46.5187 19.0074 26.8509 46.5077 -1.97582 
38.8413 46.5077 -2.45602 39.6816 46.5187 18.5272 -33.2599 46.5187 21.4484 
-45.2503 46.5187 21.9286 -46.0907 46.5077 0.94542 -34.1003 46.5077 0.46521 
43.6785 42.5187 18.3692 -49.247 42.5187 22.0908 42.8381 42.5077 -2.61399 
42.8384 30.5077 -2.60771 43.6787 30.5187 18.3755 -49.2468 30.5187 22.097 
-50.0871 30.5077 1.11387 -50.0874 42.5077 1.10758 43.68 -30.4813 18.4074 
-49.2455 -30.4813 22.129 42.8397 -30.4923 -2.57575 42.8399 -42.4923 -2.56947 
43.6803 -42.4813 18.4137 -49.2452 -42.4813 22.1353 -50.0856 -42.4923 1.15211 
-50.0858 -30.4923 1.14582 39.6836 -46.4813 18.5759 -45.2483 -46.4813 21.9773 
38.8432 -46.4923 -2.4073 26.8528 -46.4923 -1.9271 27.6932 -46.4813 19.0561 
-33.258 -46.4813 21.4971 -34.0983 -46.4923 0.51393 -46.0887 -46.4923 0.99413 
-33.2584 -26.4813 21.4866 -29.2615 -30.4813 21.3287 -29.2612 -42.4813 21.3349 
23.6963 -42.4813 19.2141 23.696 -30.4813 19.2078 27.6927 -26.4813 19.0456 
39.6831 -26.4813 18.5654 39.682 26.5187 18.5376 27.6916 26.5187 19.0178 
23.6947 30.5187 19.1758 23.6945 42.5187 19.1695 -29.263 42.5187 21.2904 
-29.2628 30.5187 21.2967 -33.2595 26.5187 21.4589 -45.2499 26.5187 21.9391 
-45.2488 -26.4813 21.9668 50.1905 30.4862 -43.935 50.1901 46.4862 -43.9434 
41.1972 55.4862 -43.5879 25.21 55.4862 -42.9477 25.2102 46.4862 -42.943 
21.2134 42.4862 -42.7808 21.2135 41.6862 -42.7804 -5.2653 41.6862 -41.7199 
-5.26508 31.2862 -41.7145 21.2137 31.2862 -42.7749 21.2137 30.4862 -42.7745 
25.2106 26.4862 -42.9325 26.0099 26.4862 -42.9645 26.0105 -0.01379 -42.9506 
36.4022 -0.01379 -43.3668 36.4016 26.4862 -43.3807 41.1977 30.4862 -43.5748 
37.201 26.4862 -43.4127 37.9209 46.4956 -25.4376 25.9305 46.4956 -24.9574 
25.9303 55.4956 -24.9621 41.9175 55.4956 -25.6024 50.9104 46.4956 -25.9578 
50.9108 30.4956 -25.9494 41.9177 42.4956 -25.5956 41.918 30.4956 -25.5893 
26.8509 46.5077 -1.97582 22.8542 42.5077 -1.81365 22.8544 30.5077 -1.80737 
26.8513 26.5077 -1.96534 38.8417 26.5077 -2.44554 42.8384 30.5077 -2.60771 
38.8413 46.5077 -2.45602 42.8381 42.5077 -2.61399 21.6939 31.2925 -30.7845 
21.6937 41.6925 -30.79 -4.78488 31.2925 -29.7241 -4.7851 41.6925 -29.7295 
36.8818 26.4925 -31.3903 26.4902 26.4925 -30.9741 36.8824 -0.0075 -31.3764 
26.4907 -0.0075 -30.9602 22.8542 42.5077 -1.81365 22.8544 30.5077 -1.80737 
26.8513 26.5077 -1.96534 38.8417 26.5077 -2.44554 -46.9316 26.4862 -40.0433 
-46.931 -0.01379 -40.0294 -36.5393 -0.01379 -40.4456 -36.5399 26.4862 -40.4594 
-35.7405 26.4862 -40.4915 -31.7438 30.4862 -40.6536 -31.7439 31.2862 -40.654 
-5.26508 31.2862 -41.7145 -5.2653 41.6862 -41.7199 -31.7441 41.6862 -40.6595 
-31.7441 42.4862 -40.6599 -35.741 46.4862 -40.5019 -35.7411 55.4862 -40.5066 
-51.7283 55.4862 -39.8664 -60.7209 46.4862 -39.5015 -60.7206 30.4862 -39.4931 
-51.7278 30.4862 -39.8533 -47.7309 26.4862 -40.0112 -60.0003 30.4956 -21.5075 
-60.0006 46.4956 -21.5159 -51.008 55.4956 -21.8808 -35.0209 55.4956 -22.5211 
-35.0207 46.4956 -22.5163 -47.0111 46.4956 -22.0361 -51.0078 42.4956 -21.874 
-51.0075 30.4956 -21.8677 -34.1003 46.5077 0.46521 -30.1034 42.5077 0.30724 
-30.1031 30.5077 0.31353 -34.0998 26.5077 0.47569 -46.0902 26.5077 0.95589 
-50.0871 30.5077 1.11387 -46.0907 46.5077 0.94542 -50.0874 42.5077 1.10758 
-31.2637 31.2925 -28.6637 -31.2639 41.6925 -28.6691 -4.7851 41.6925 -29.7295 
-4.78488 31.2925 -29.7241 -46.4514 26.4925 -28.0529 -36.0597 26.4925 -28.469 
-36.0592 -0.0075 -28.4552 -46.4508 -0.0075 -28.039 -30.1034 42.5077 0.30724 
-30.1031 30.5077 0.31353 -34.0998 26.5077 0.47569 -46.0902 26.5077 0.95589 
36.4027 -26.5138 -43.3529 36.4022 -0.01379 -43.3668 26.0105 -0.01379 -42.9506 
26.0111 -26.5138 -42.9367 25.2117 -26.5138 -42.9047 21.215 -30.5138 -42.7426 
21.215 -31.3138 -42.7421 -5.26377 -31.3138 -41.6817 -5.26355 -41.7138 -41.6762 
21.2152 -41.7138 -42.7367 21.2152 -42.5138 -42.7363 25.2121 -46.5138 -42.8942 
25.2123 -55.5138 -42.8895 41.1995 -55.5138 -43.5298 50.1921 -46.5138 -43.8947 
50.1918 -30.5138 -43.903 41.199 -30.5138 -43.5429 37.2021 -26.5138 -43.3849 
50.9121 -30.5043 -25.9175 50.9124 -46.5043 -25.9091 41.9198 -55.5043 -25.5442 
25.9326 -55.5043 -24.9039 25.9324 -46.5043 -24.9087 37.9228 -46.5043 -25.3889 
41.9195 -42.5043 -25.551 41.9193 -30.5043 -25.5573 26.8528 -46.4923 -1.9271 
22.8559 -42.4923 -1.76913 22.8557 -30.4923 -1.77541 26.8524 -26.4923 -1.93758 
38.8428 -26.4923 -2.41778 42.8397 -30.4923 -2.57575 38.8432 -46.4923 -2.4073 
42.8399 -42.4923 -2.56947 21.6952 -31.3075 -30.7517 21.6954 -41.7075 -30.7463 
-4.78335 -41.7075 -29.6859 -4.78357 -31.3075 -29.6913 36.8829 -26.5075 -31.3625 
26.4913 -26.5075 -30.9464 26.4907 -0.0075 -30.9602 36.8824 -0.0075 -31.3764 
22.8559 -42.4923 -1.76913 22.8557 -30.4923 -1.77541 26.8524 -26.4923 -1.93758 
38.8428 -26.4923 -2.41778 -46.0891 -26.4923 0.98366 -34.0987 -26.4923 0.50345 
-30.1019 -30.4923 0.34548 -30.1016 -42.4923 0.35177 -35.7394 -26.5138 -40.4637 
-47.7298 -26.5138 -39.9835 -46.9305 -26.5138 -40.0155 -46.4503 -26.5075 -28.0251 
-36.0586 -26.5075 -28.4413 -36.5388 -26.5138 -40.4317 -31.7423 -42.5138 -40.6154 
-31.7425 -30.5138 -40.6217 -31.7425 -31.3138 -40.6212 -31.2623 -31.3075 -28.6309 
-31.2621 -41.7075 -28.6254 -31.7423 -41.7138 -40.6158 -51.006 -42.5043 -21.8295 
-51.0062 -30.5043 -21.8357 -47.0091 -46.5043 -21.9874 -35.0187 -46.5043 -22.4676 
-46.4508 -0.0075 -28.039 -36.0592 -0.0075 -28.4552 -36.5393 -0.01379 -40.4456 
-46.931 -0.01379 -40.0294 -4.78357 -31.3075 -29.6913 -4.78335 -41.7075 -29.6859 
-5.26377 -31.3138 -41.6817 -5.26355 -41.7138 -41.6762 -35.0185 -55.5043 -22.4629 
-51.0057 -55.5043 -21.8227 -59.9987 -46.5043 -21.4672 -59.999 -30.5043 -21.4756 
-60.7193 -30.5138 -39.4612 -51.7265 -30.5138 -39.8213 -60.719 -46.5138 -39.4528 
-35.739 -46.5138 -40.4532 -35.7388 -55.5138 -40.4485 -51.726 -55.5138 -39.8082 
-46.3977 -46.1718 31.5308 -47.6944 -45.3047 31.5823 -48.5608 -44.007 31.6163 
-48.8651 -39.4763 31.6261 -48.8652 -36.4763 31.6245 -48.8653 -33.4763 31.623 
-48.8654 -27.4263 31.6198 -48.8655 -24.3763 31.6182 -48.8655 -21.3263 31.6166 
-48.8656 -18.2763 31.615 -48.8657 -15.2263 31.6134 -48.8657 -12.1763 31.6118 
-48.8658 -9.1263 31.6102 -48.8658 -6.0763 31.6086 -48.8659 -3.02631 31.607 
-48.866 0.02369 31.6054 -48.866 3.07369 31.6038 -48.8661 6.12369 31.6022 
-48.8662 9.17369 31.6006 -48.8662 12.2237 31.599 -48.8663 15.2737 31.5974 
-48.8663 18.3237 31.5958 -48.8664 21.3737 31.5942 -48.8665 24.4237 31.5926 
-48.8665 27.4737 31.591 -48.8667 33.5237 31.5879 -48.8667 36.5237 31.5863 
-48.8668 39.5237 31.5847 -48.5626 44.0544 31.5702 -47.6963 45.3521 31.5348 
-46.3996 46.2192 31.4824 -41.8726 46.5237 31.3009 -38.875 46.5237 31.1809 
-35.8773 46.5237 31.0608 -29.8322 46.5237 30.8187 -26.7846 46.5237 30.6967 
-23.7371 46.5237 30.5746 -20.6895 46.5237 30.4526 -17.642 46.5237 30.3305 
-14.5944 46.5237 30.2085 -11.5469 46.5237 30.0864 -8.49931 46.5237 29.9644 
-5.45175 46.5237 29.8423 -2.40419 46.5237 29.7203 0.64336 46.5237 29.5982 
3.69092 46.5237 29.4762 6.73848 46.5237 29.3541 9.78603 46.5237 29.2321 
12.8336 46.5237 29.11 15.8811 46.5237 28.988 18.9287 46.5237 28.8659 
21.9763 46.5237 28.7439 25.0238 46.5237 28.6218 31.069 46.5237 28.3797 
34.0666 46.5237 28.2596 37.0642 46.5237 28.1396 41.5913 46.2192 27.9585 
42.8879 45.3521 27.907 43.7544 44.0544 27.873 44.0587 39.5237 27.8631 
44.0588 36.5237 27.8647 44.0588 33.5237 27.8663 44.059 27.4737 27.8695 
44.059 24.4237 27.8711 44.0591 21.3737 27.8727 44.0592 18.3237 27.8743 
44.0592 15.2737 27.8759 44.0593 12.2237 27.8774 44.0593 9.17369 27.879 
44.0594 6.12369 27.8806 44.0595 3.07369 27.8822 44.0595 0.02369 27.8838 
44.0596 -3.02631 27.8854 44.0597 -6.0763 27.887 44.0597 -9.1263 27.8886 
44.0598 -12.1763 27.8902 44.0598 -15.2263 27.8918 44.0599 -18.2763 27.8934 
44.06 -21.3263 27.895 44.06 -24.3763 27.8966 44.0601 -27.4263 27.8982 
44.0602 -33.4763 27.9014 44.0603 -36.4763 27.903 44.0604 -39.4763 27.9045 
43.7562 -44.007 27.9191 42.8898 -45.3047 27.9545 41.5932 -46.1718 28.0068 
37.0661 -46.4763 28.1883 34.0685 -46.4763 28.3084 31.0709 -46.4763 28.4284 
25.0258 -46.4763 28.6705 21.9782 -46.4763 28.7926 18.9307 -46.4763 28.9146 
15.8831 -46.4763 29.0367 12.8355 -46.4763 29.1587 9.78798 -46.4763 29.2808 
6.74043 -46.4763 29.4028 3.69287 -46.4763 29.5249 0.64531 -46.4763 29.6469 
-2.40224 -46.4763 29.769 -5.4498 -46.4763 29.891 -8.49736 -46.4763 30.0131 
-11.5449 -46.4763 30.1351 -14.5925 -46.4763 30.2572 -17.64 -46.4763 30.3792 
-20.6876 -46.4763 30.5013 -23.7351 -46.4763 30.6233 -26.7827 -46.4763 30.7454 
-29.8302 -46.4763 30.8674 -35.8754 -46.4763 31.1096 -38.873 -46.4763 31.2296 
-41.8706 -46.4763 31.3496 27.8179 46.5204 22.1715 27.9447 46.522 25.3356 
26.9709 46.5093 1.02178 27.091 46.5108 4.01938 27.211 46.5124 7.01697 
27.3311 46.514 10.0146 27.4511 46.5156 13.0122 27.5712 46.5171 16.0098 
29.8484 46.5077 -2.09587 32.8461 46.5077 -2.21592 35.8437 46.5077 -2.33597 
38.9613 46.5093 0.54158 39.0813 46.5108 3.53917 39.2014 46.5124 6.53677 
39.3214 46.514 9.53437 39.4415 46.5156 12.532 39.5616 46.5171 15.5296 
39.8083 46.5204 21.6913 39.935 46.522 24.8554 -33.1332 46.5204 24.6125 
-33.0065 46.522 27.7766 24.6437 46.5187 19.1294 21.5961 46.5187 19.2515 
18.5485 46.5187 19.3735 15.501 46.5187 19.4956 12.4534 46.5187 19.6176 
9.40587 46.5187 19.7397 6.35832 46.5187 19.8617 3.31076 46.5187 19.9838 
0.2632 46.5187 20.1058 -2.78435 46.5187 20.2279 -5.83191 46.5187 20.3499 
-8.87947 46.5187 20.472 -11.927 46.5187 20.594 -14.9746 46.5187 20.7161 
[...]
CELL_DATA 12638
SCALARS cell_scalars float
LOOKUP_TABLE default
-9417.5 -9082.1 -9477.4 -9544.4 -8888.2 -9387.4 -9257.1 -9184.5 -9590.5 
-9274.2 -9641.7 -9367.5 -9637.9 -9109.9 -9356.3 -8735.5 -9038.7 -8370 
-8770 -8028.7 -8517.7 -7702.8 -8371.3 -8247.5 -8940.7 -8662.5 -9219.4 
-9003.4 -9484.9 -9266.6 -9666.4 -9357.3 -9524.3 -9000.8 -9228.5 -8608.3 
-8855.2 -8172.2 -8482.5 -7867.1 -8277.3 -7724.4 -8479.8 -8254.3 -8906.6 
-8723 -9295.2 -9027.2 -9475.9 -9337.3 -9693.6 -9214.1 -9431.2 -8850.3 
-9091.4 -8443.2 -8719.1 -8015.2 -8363.7 -7739.3 -8138.1 -7632.3 -8126.1 
-8112.1 -8769.2 -8800.2 -8512.9 -8987 -9119.6 -8659.5 -9052.7 -8549 
-8980.8 -8633.4 -8956 -8460.7 -8929.5 -8515.8 -8906.5 -8501.9 -8904.7 
-8591.2 -8901.9 -8550.1 -8914.5 -8541.4 -8923.1 -8555.9 -8866.7 -8527.5 
-8891.8 -8577 -8910.6 -8562.8 -8898.3 -8576.1 -8914.3 -8544.3 -8937.5 
-8573.7 -8908.7 -8606.5 -8949.4 -8609.5 -8948.3 -8597.1 -8951.4 -8598.7 
-8997.3 -8628.8 -9038.4 -8648.2 -9008 -8673.6 -8998.4 -8618.5 -9062 
-8681.7 -9040.6 -8715 -9056.7 -8694.6 -9089 -8725.8 -9170.9 -8799.2 
-9330.5 -9165.5 -8672.6 -8993.9 -8890.2 -8421 -8371.9 -7878.7 -8074.5 
-7706.6 -8417.8 -7955.5 -8495.9 -8318.8 -8954.7 -8727.7 -9310.3 -9136.1 
-9603 -9315 -9492.8 -9070.4 -9344.7 -8821.1 -9048.6 -8414.4 -8581.4 
-7839.3 -8178.6 -7771.2 -8397.6 -8062.3 -8662.7 -8454.2 -9073.8 -8862 
-9418.7 -9239.6 -9663.3 -9298.7 -9536 -9104 -9299.9 -8818 -9017.7 
-8405 -8558.6 -7976 -8402.7 -7933.3 -8547.4 -8241.5 -8831.8 -8587.1 
-9199.1 -8943.3 -9501.1 -9242.8 -9615.2 -9286.4 -9626.7 -9248.2 -9575.5 
-9497.9 -9105.8 -9478.4 -9484 -9010.4 -9308 -8816.2 -9198.8 -8896 
-9165.1 -8821.2 -9188.4 -8846.1 -9179.9 -8845.8 -9166.9 -8849.1 -9202.9 
-8889.9 -9219.9 -8853.7 -9206 -8894.8 -9274.5 -8860.8 -9214.2 -8844.2 
-9232.3 -8850.8 -9227.2 -8867 -9208 -8865.3 -9247.5 -8849.5 -9206.2 
-8832.9 -9190.1 -8850.7 -9165.5 -8807.1 -9200.6 -8827.6 -9159.9 -8842.6 
-9147.1 -8820.1 -9154.8 -8774.9 -9079.2 -8753.7 -9089.3 -8760.1 -9064.6 
-8749.9 -9056.7 -8727 -9097 -8712.8 -8689.3 -8813.9 -8770.9 -8933.8 
-8774.9 -8773.9 -8146.9 -8167.4 -7987.1 -8134.7 -8098.3 -8139.7 -8316.9 
-8413.5 -7671.8 -7923.2 -8995.6 -8860.1 -9004.5 -8964 -8649.6 -8802.7 
-8256.8 -8379.2 -7931.7 -8013.1 -7627.6 -7714.8 -7577.7 -7483.1 -8072.1 
-7758.5 -8530.7 -8260.2 -8825.4 -8611.1 -9010 -8869.3 -9038.9 -9077.2 
-8605.5 -8800 -8206.8 -8388.2 -7835.2 -7990.9 -7552.7 -7688.9 -7599.5 
-7521.9 -8152.6 -7853.1 -8514.3 -8338.7 -8805.5 -8653.4 -9071.5 -8953.9 
-8865.6 -8970.3 -8443.6 -8603.6 -8001.6 -8170.8 -7669.1 -7760.3 -7371.5 
-7512.3 -8728.9 -8817.6 -8634.5 -8684.3 -8699 -8762.5 -8768.1 -8708.4 
-8803.6 -8713.7 -8807.2 -8700.1 -8756.3 -8727 -8773.6 -8733.9 -8770.1 
-8735.1 -8829.9 -8736.9 -8803.3 -8730.2 -8799.8 -8728.5 -8807.9 -8725.4 
-8771 -8715 -8771.2 -8688.6 -8756.7 -8689.4 -8773.8 -8681.3 -8715.9 
-8697.6 -8708.6 -8697.7 -8693.8 -8660.8 -8704.4 -8681.1 -8725.5 -8651.1 
-8668.9 -8674.1 -8699.2 -8593.5 -8646 -8721.5 -8689.1 -8698.4 -8717.2 
-8136.9 -7937.9 -8112.3 -8025.1 -8134.3 -8027.5 -7990.9 -7952.9 -8104.9 
-7883.7 -8060.8 -7887.6 -8106.8 -7998.9 -8123.6 -8026 -8120.4 -8029.6 
-8143.1 -8059.6 -8115.1 -8072.8 -8130.4 -8087.1 -8155.6 -8053.7 -8175.2 
-8069.7 -8172.6 -8080.5 -8102.9 -8056.5 -8127.9 -8060.4 -8124.9 -7995.6 
-8177.9 -7974.8 -8192.7 -7998.8 -8127.3 -7965.5 -8153.6 -8024.8 -8195.9 
-8012.5 -8256.2 -7994.5 -8234.5 -8094.1 -8300 -8051.3 -7584.3 -7721.7 
-7525.7 -7441.9 -7779.2 -7665 -8154.1 -7928.2 -8586.5 -8341.4 -8998.2 
-8785.2 -9046.6 -9046.9 -8747.2 -8810.5 -8406.4 -8546.1 -7943.2 -8146.9 
-7498.4 -7646.8 -7645.9 -7548.6 -7950.4 -7759.6 -8349.4 -8103.8 -8761.7 
-8516 -9107.9 -8930.7 -8953.4 -9007.5 -8731.5 -8806.3 -8361.2 -8527.1 
-7914.8 -8122.3 -7598.3 -7600.4 -7766.8 -7614.7 -8040.8 -7864.5 -8348.6 
-8146.7 -8764.6 -8525.8 -9065.7 -8952.3 -8928.5 -8953.8 -7783.9 -8873.4 
-8135.9 -7914.4 -8797 -7433.7 -8625 -8823.9 -8867 -8976.8 -8893.4 
-7804.3 -7630.8 -7322.9 -7303.2 -8702.4 -8878.7 -7578.8 -7415.5 -8673.6 
-8624.5 -8300.6 -8503.5 -7863.2 -7700.7 -7923.4 -8111.4 -7630 -7780.3 
-7389.6 -7537 -7826.1 -7456.5 -8286.2 -8067.9 -8642.3 -8478.9 -8865.9 
-8765.2 -9043.8 -8935.9 -8768 -8943.4 -8333.9 -8515.1 -7966.6 -8126.3 
-7644.2 -7740.1 -7493 -7536.6 -7925.2 -7615.5 -8346.6 -8145.4 -8672.2 
-8547.7 -8950.2 -8785.9 -8919.5 -9030.8 -8573.4 -8735.9 -8131.8 -8320.9 
-7768.1 -7936 -8289.2 -8050.1 -8724.2 -8507.7 -9025.6 -8936.1 -8796 
-8959 -8544.4 -8708.2 -8178.9 -8379.9 -7668.5 -7955.2 -7548 -7468.5 
-7769.7 -7594.2 -8087.6 -7900.6 -8493.3 -8280.3 -8907.4 -8698.7 -8970.4 
-9011.1 -8780.6 -8887.9 -8547.3 -8667.7 -8160.9 -8374.2 -7591.1 -7914.6 
-7451.2 -7445.1 -7782.8 -7573 -8122.5 -7950.9 -8495.8 -8279 -8836.9 
-8658.8 -7470.4 -7583.7 -8919.6 -8942 -8835 -8855.3 -8822.5 -8852.3 
-8857 -8847.7 -8873 -8904.9 -8892.8 -8918.5 -8848.3 -8948.8 -8860.8 
-8924.2 -8870.8 -8878.3 -8837.2 -8885.8 -8875.8 -8883.1 -8834.5 -8874.6 
-8848.8 -8913.2 -8850.4 -8896.9 -8855.7 -8909.4 -8849.6 -8886.1 -8843.7 
-8923 -8855.7 -8936.5 -8848 -8931.5 -8847.4 -8916.1 -8842.4 -8898.1 
-8845.6 -8906.4 -8796 -8890.4 -8766.9 -8880.3 -8728.8 -8815.6 -7702.6 
-7611.9 -7621.5 -7536 -7691.4 -7546 -7725.2 -7462.9 -7613.7 -7576.2 
-7613.7 -7353.5 -7536.5 -7335.3 -7604.6 -7283.7 -7601.7 -7343.7 -7589.2 
-7337.8 -7617.2 -7368.3 -7670.9 -7391.6 -7596.4 -7371.3 -7599.9 -7406.1 
-7597.4 -7433.9 -7667.8 -7473.1 -7727.7 -7490.5 -7695.2 -7525.1 -7734.2 
-7613 -7790.2 -7655.4 -7836 -7645.1 -7836.3 -7710.4 -7690.6 -7592.8 
-7728.3 -7617.7 -7774.4 -7634.6 -7285.5 -8917 -8694.4 -8700.2 -8742.7 
-8858.5 -8789.7 -7551.4 -7705.9 -7361.7 -7327.5 -7325.1 -7422 -7361.1 
-7429.8 -7366.4 -7657.9 -7595.9 -8868.8 -8954.2 -8890.5 -8933.2 -8514 
-8652.3 -8149.6 -8278.1 -8029.8 -7845.5 -8942 -8957.6 -7413.6 -7521.6 
-7842.9 -7993.4 -8467.9 -8248 -8819.6 -8781.8 -7545.5 -7702.4 -7543.8 
-7534.4 -8124.1 -7787.8 -8543.2 -8373.6 -8816 -8683.3 -8982.8 -8893.8 
-8909.6 -9046.1 -8481.1 -8717.4 -8061.3 -8291.8 -7717.4 -7903.1 -7438.3 
-7558.4 -7674.2 -7369.1 -8243.6 -7972.7 -8620.4 -8395 -8784.7 -8711 
-8972.8 -8882.4 -8761.8 -8888.5 -8333.1 -8541.4 -7906.4 -8130.7 -7564.2 
-7735 -8911.5 -8699.2 -8962.3 -9026.5 -8744.7 -8819.6 -8467.5 -8599.2 
-8070.2 -8288.8 -7540.8 -7833 -7536.3 -7385.8 -7827.8 -7659.6 -8210.7 
-8006.7 -8658.1 -8420.5 -8987.5 -8818.3 -8910.7 -9008.5 -8749.6 -8831.9 
-8452.1 -8593.3 -8014 -8222.7 -7490 -7683.5 -7672.8 -7625.8 -7907.5 
-7747.8 -8260.2 -8076.9 -8640.1 -8452.7 -8945.3 -8842.8 -8959.3 -8952.3 
-8964.1 -8947.9 -9042.4 -9068.4 -9020.7 -8992 -9023.1 -9005.8 -8993.3 
-9017.1 -8997.7 -9036.3 -9003.1 -9033.7 -9003.1 -9040.2 -9011.7 -9042.1 
-9010.8 -9057 -9027.7 -9052.9 -9039.7 -9058.5 -9036.9 -9065.7 -9043.3 
-9090.5 -8994.9 -9092.3 -9009.1 -9017.3 -9004.6 -9066.7 -8918.2 -9024.6 
-8932.1 -8957.2 -8917.8 -8941.5 -7308.8 -7350 -7466.4 -7434.6 -7248.7 
-7392.6 -7338.6 -7345 -7316.8 -7352.2 -7307.6 -7371.6 -7270.3 -7380.5 
-7303.2 -7390.8 -7303.2 -7370.5 -7249.3 -7350.6 -7269.3 -7313.6 -7268.4 
-7279.9 -7313 -7337.3 -7269.6 -7334.5 -7283.1 -7334.8 -7323.2 -7300.9 
-7421.2 -7275.7 -7467 -7493.6 -7475.3 -7432.2 -7367 -7392.9 -7399.3 
-7394.8 -7477.4 -7340 -8816.5 -8825.3 -8861.4 -7334.7 -7365.5 -8914.3 
-8906.7 -8957.8 -7411.6 -7503.1 -8804.9 -8913.4 -7431.9 -7463.6 -7562.5 
-7405.2 -7476.7 -8660.6 -8810.6 -8867.5 -8264.5 -8470 -7898.8 -8037.9 
-7620.8 -7795.5 -7890.5 -7753.1 -8297.7 -8051.9 -8730.7 -8499.3 -8444.8 
-8592.9 -7384.6 -7431.1 -7728.5 -7611.3 -8897.9 -8834.8 -7471.8 -7447.2 
-8066 -8252.6 -8137.7 -7917.3 -8878.9 -8803.1 -7514.4 -7566.5 -9007.1 
-8884.2 -7428.4 -7512 -7483.3 -7509.1 -7568 -7541.5 -7579.8 -7613.4 
-7560.1 -7631.5 -7558.6 -7670.4 -7490 -7630.3 -7472.6 -7577.3 -7482.8 
-7567.2 -7466.3 -7576.2 -7471.3 -7562.2 -7496.8 -7570.2 -7507 -7559.2 
-7435 -7547.7 -7495.5 -7621.2 -8950 -8781 -8988.5 -8853.9 -8927.2 
-8857.2 -9004.7 -8845.6 -8992.9 -8870.1 -8955.9 -8854.6 -8929.1 -8842.2 
-8911.2 -8784.6 -8896 -8801 -8881.3 -8767.5 -8867 -8780.3 -8867.8 
-8747.7 -8845.4 -8737 -8830.9 -8734.6 -8844.4 -8707.6 -8518.6 -8309.6 
-8895.4 -8724.8 -8854.4 -9001.3 -8568.1 -8729.2 -8251.1 -8437.2 -7804.5 
-8052.9 -7578.2 -7547.7 -7671.7 -7624.1 -7981.9 -7823.8 -8342.9 -8164.1 
-8758.3 -8557.1 -9007.2 -8964.9 -8803.1 -8889.3 -8612.2 -8741.4 -8367.2 
-8481.5 -7906.1 -8140.7 -7728.7 -7917.7 -7529.1 -7601.9 -7444.7 -7425.2 
-8053.4 -7890.6 -8462.2 -8271.5 -8768.9 -8612.4 -8983.2 -8874.7 -8829 
-8999 -8420.4 -8661 -8023.6 -8236.9 -7667.3 -7852.6 -7443.8 -7540.8 
-7737.3 -7531.2 -8207.4 -7942 -8480.7 -8281.7 -8776.6 -8630.8 -7517.6 
-7572.5 -8826.7 -8732.4 -7575.7 -7688.2 -8887.5 -8753.9 -7502.3 -7559.4 
-8827.6 -8715.6 -7451.9 -7549.2 -8840.9 -8728.7 -7536.1 -8901.4 -8739.1 
-7528.2 -7774.9 -7677.8 -8429.9 -8543.2 -8616.6 -8485.3 -8284.1 -8590.6 
-7716.4 -7604.4 -7887.8 -7606.4 -8027.7 -8229.1 -7779.7 -7895.2 -7597.8 
-8116.5 -7951.8 -8525.6 -8286.2 -8911.4 -8708.3 -8517.1 -8427.5 -7697.3 
-7771.1 -8485.9 -8383.7 -8495.1 -8361.8 -8537.5 -8392.2 -8515.4 -8423.2 
-8527.3 -8384.2 -8548.7 -8447.4 -8555.7 -8429.1 -8589.6 -8455.6 -8575.8 
-8442.3 -8587.8 -8459.1 -8565.6 -8448.2 -8533.7 -8442.9 -8533.8 -8412.5 
-8596.7 -8450.7 -8618.1 -8465.5 -8617.8 -8516 -8575.8 -8485 -8556.2 
-8443.8 -7770.3 -7826.5 -7833.7 -7861 -7813.9 -7916.9 -7848.1 -7925.7 
-7784.5 -7930.2 -7857.3 -7929 -7858.9 -7928.1 -7848.6 -7962.2 -7845.7 
-7935.9 -7796.2 -7900.6 -7825.6 -7908.7 -7769.6 -7883.4 -7697.8 -7807.8 
-7694.9 -7800.8 -7704.8 -7792.9 -7660.1 -7779 -7686.5 -7794.8 -7717.8 
-7816.7 -8290.6 -8049.2 -8763.9 -8549.7 -9014 -8933 -8803.3 -8888.2 
-8574.6 -8691.5 -8181.9 -8393.1 -7818.7 -8007.3 -7403.7 -7472.6 -7695.2 
-7562 -8065.2 -7870.7 -8479.2 -8262.8 -8878.6 -8690.4 -8969.3 -8990.2 
-8737.5 -8876.9 -8433 -8644.1 -8042.4 -8249.5 -7914.2 -8137.5 -7677.2 
-7848.8 -7491.1 -7654.7 -7961.5 -7687.6 -8459.8 -8208.3 -8709.3 -8597.1 
-8862.5 -8808.5 -9038.6 -8977.2 -8702.2 -8902.5 -8297.8 -8467.4 -7924.9 
-8068.2 -7637.2 -7754 -7430.2 -7559.1 -7901.8 -7681.4 -8434.5 -8157.1 
-8680.2 -8581.8 -7933.8 -8242.8 -7741.9 -8094.1 -7946.2 -8398.2 -8412.4 
-8175.1 -8857.8 -9002.5 -8750.4 -7827.7 -7596.7 -7605.4 -7526.1 -8131 
-8083.1 -7936 -8051.7 -8095.4 -8328.6 -8736.4 -8531.8 -8132.4 -8041.7 
-8130.5 -7999.4 -8197.3 -8056.2 -8167.7 -8066.6 -8168.3 -8061 -8121.8 
-8023.1 -8137.1 -8031.3 -8136 -8034.2 -8159.1 -8041.6 -8175.6 -8048.7 
-8178.8 -8073.5 -8234.1 -8118.9 -8243.7 -8133.1 -8182.6 -8123.7 -8266.3 
-8143.1 -8251.2 -8165.5 -8205.3 -8122.7 -8100.3 -8209.4 -8126.9 -8238.1 
-8162.1 -8261 -8140.9 -8247.5 -8079.9 -8223 -8062.7 -8216.1 -8077.7 
-8194 -8061.5 -8168 -8048.6 -8167.4 -8042.4 -8162 -8078.2 -8177.6 
-8061.3 -8170 -8074.1 -8191.4 -8060.8 -8178.5 -8059.8 -8161.7 -8062.2 
-8139 -7993.4 -8140.2 -8540.9 -8317.7 -8912.8 -8730.7 -8828 -8960.3 
-8591.2 -8718.6 -8286.4 -8459.6 -7890.3 -8079.5 -7505.1 -7555 -7543.1 
-7492.2 -7898.5 -7721.7 -8277.4 -8078.7 -8672.2 -8461.9 -8990.1 -8885.3 
-8887.5 -8952.5 -8697.9 -8822.2 -8328.6 -8545.5 -7746.8 -7889.4 -8016.5 
-7564.2 -7619.4 -7667.6 -7491.9 -8079.7 -7852.7 -8483.2 -8242.5 -8800.6 
-8678.1 -8988.7 -8889.9 -8836.2 -9005 -8412.9 -8635.2 -8025.1 -8216.8 
-7643.2 -7798.7 -7421.2 -7474.9 -7695 -7538 -8193.3 -7988.2 -8570.4 
-8355.6 -8169.1 -8103.4 -8064.1 -8295 -7637.7 -7785.2 -7831.1 -7757.6 
-7799.4 -7871.9 -7626 -7921 -7805.3 -8433 -8570.9 -7988.4 -7870.2 
-8973.1 -8931.3 -8795.9 -8868.4 -8694.3 -7962.7 -7897.8 -7822 -7706.5 
-7940.4 -7853.8 -7873 -7819.7 -7920.8 -7810.7 -7926 -7831.5 -7901.3 
-7833.4 -7897.3 -7833.4 -7884.1 -7823 -7854.2 -7821.2 -7822.6 -7795.4 
-8139 -7877.8 -7546.1 -7679.4 -7832 -7721.6 -7796.5 -7708.9 -7802.5 
-7717.2 -8763 -8516.1 -8386.6 -8543.7 -8347.6 -8500.5 -8405.1 -8481.2 
-8366.3 -8501.4 -8344 -8469.7 -8425.7 -8521.6 -8458.3 -8561 -8448.7 
-8577.3 -8453.9 -8570.6 -8459.5 -8601.9 -8478.5 -8592.1 -8470.2 -8590.7 
-8466.6 -8608.7 -8453.1 -8593.8 -8461.5 -8580.5 -8502.5 -8637.4 -9018.4 
-8915.8 -8810.3 -8857.6 -8555.4 -8696.3 -8199.8 -8425.6 -7570.4 -7902 
-7523.1 -7384.4 -7792 -7587.2 -8093.6 -7936 -8496.4 -8281.2 -8921.3 
-8723.9 -8931.7 -9047.6 -8761 -8848.8 -8465.7 -8610.7 -7394 -7588.3 
-7912 -7682.6 -8387.1 -8138.3 -8693.7 -8542 -8824.8 -8789.6 -8981.8 
-8926.7 -8691.3 -8886.2 -8254 -8496.2 -7870.6 -8082.7 -7628.5 -7760.9 
-7323.5 -7543.3 -7847.5 -7648.3 -8307.3 -8127.7 -7719.3 -7416.4 -8576.5 
-7604.3 -7567.2 -7705.7 -7583.9 -7721.5 -7647.7 -7529.1 -7599.9 -8964.2 
-8835.4 -8762.6 -8945.5 -8718.5 -7564.5 -7509.4 -8152.4 -7951.5 -8354.7 
-8859.8 -8987.8 -8866.9 -8997.4 -8623.4 -8742.7 -8495.5 -7654.3 -7572.6 
-8710 -8850.4 -8683.4 -8815.8 -8760.3 -8815.3 -8751.1 -8849.7 -8731.2 
-8834.5 -8779.3 -8847.2 -8810 -8892 -8811.1 -8934.5 -8837 -8935.5 
-8827.4 -8962.7 -8858.4 -8962.9 -8868.2 -8932.2 -8849.2 -8920 -8885.7 
-8957.7 -8671.8 -8732 -8350.1 -8498.6 -7940.1 -8157.5 -7233.6 -7512.1 
-7512.8 -7360.6 -7865 -7704.7 -8240 -8011.9 -8688 -8461.6 -9038.5 
-8884.6 -8885.8 -8980.3 -8637.6 -8767.4 -8099 -7917.9 -8540.4 -8378.6 
-8786 -8635.5 -8954.9 -8869.7 -8900.3 -9038.5 -8483.1 -8698.5 -8066.2 
-8228.7 -7722.9 -7884.6 -7419.1 -7543.3 -7736.7 -7299.8 -8213.8 -7943.5 
-7666.6 -7624.8 -7700.2 -7591.2 -7617.5 -7603.6 -7576.7 -7537.7 -7629.9 
-7530.3 -7620.3 -7553.8 -7650.2 -7516.1 -7611.3 -7563.6 -7688.9 -7540.7 
-7708.4 -7579.4 -7663.2 -7627.2 -7647.3 -7665.6 -8804.1 -7412.4 -7540.6 
-7508.7 -7390.1 -8956.5 -8992.5 -8728.4 -8830.3 -8981 -8957.9 -8964.3 
-7912.5 -7668 -8414.6 -8581.8 -9020.3 -9011.3 -8300.6 -8114.7 -8978.4 
-8988.5 -8171.4 -8370.3 -8661.6 -8495.8 -8984.2 -8982.6 -7388 -7329.6 
-8963.4 -8953.1 -8952.3 -8913.6 -8978.2 -8907.1 -9016.3 -8943.6 -9026.7 
-8968.7 -9045.1 -8976 -9019.1 -8973.6 -9010.2 -8950.6 -9012.3 -8953.3 
-8986.6 -8929.5 -8509.7 -8365.6 -8003.8 -8084.8 -7507.2 -7723.8 -7599.3 
-7576 -7511.2 -7563.4 -7680 -7932.9 -7502.5 -7471.6 -7773.2 -7662.4 
-8014.5 -7877.3 -8442.3 -8230 -8845.5 -8649.5 -9009 -8961.4 -8830.6 
-8911.8 -8819.1 -8740.2 -9079.1 -8988.7 -8702.3 -8938.3 -8272 -8512.8 
-7917.6 -8095.7 -7566.4 -7736.6 -7404.2 -7474.5 -7859 -7651.4 -8444.3 
-8549.9 -8768.5 -8693.1 -7520.6 -7524.3 -7507.8 -7445.8 -7541.7 -7390.6 
-7445.6 -7403.4 -7457 -7316.6 -7395.2 -7352.8 -7425.3 -7391.8 -7345.9 
-7591.4 -7472.9 -7604.3 -7534.6 -7365 -8833.3 -7596.6 -8881.4 -8783.3 
-8852.1 -8556.7 -8642.3 -8403.2 -8955.2 -8822.5 -8891.9 -8589.9 -8736.6 
-8281.2 -8468.2 -8051.7 -7702.8 -7844.1 -8209.7 -8172.8 -8468.4 -8708.7 
-8508.8 -8196.2 -8516.7 -7664.9 -8027.2 -7491.2 -7411.1 -7486.8 -7644.6 
-7747.6 -7869.5 -7700.9 -7900.7 -7749.5 -7908.4 -7747.2 -7966.6 -7753.4 
-7905.5 -7780.3 -7962.4 -7680.1 -7968.6 -7728.1 -7852.3 -7815.5 -7861.8 
-7855 -7970.4 -7953.2 -8260.6 -7462.1 -7783.7 -7545.3 -7354.3 -7828.9 
-7674.1 -8295.1 -8046.8 -8712.5 -8502.7 -8975.6 -8879 -8806.7 -8920.4 
-8745 -8614.9 -8945.4 -8815.6 -8901.1 -9004.5 -8442 -8656.7 -8029.2 
-8221.1 -7672.6 -7855.5 -7526.4 -7534.1 -7573.4 -7501.1 -8831.9 -8813.3 
-8852.6 -8768.4 -8797.6 -8794.4 -8837.9 -8769.1 -8771.6 -8778.3 -8728.8 
-8717.2 -8731.1 -8697.1 -8724.4 -8708.5 -8789.2 -8679.1 -8786 -8735.1 
-8789.7 -8731.3 -8680.5 -8602.4 -8290.2 -8487.9 -8687.5 -8787 -8736.8 
-8473.6 -8557.8 -7944.9 -7624.6 -7810.7 -8032.2 -7962.1 -8385 -8221.7 
-8198.4 -8353 -7809.7 -8198 -8243.1 -8519.6 -8623.7 -8474.5 -8743.8 
-8213.5 -8271.4 -8206 -8342.4 -8248.1 -8393.7 -8232.7 -8301.5 -8194.8 
-8302.3 -8158.8 -8243.8 -8151.3 -8282.5 -8278.4 -8246.2 -8230.4 -8366.4 
-7617 -7989 -8621.7 -8579.1 -8636.5 -8573.7 -8663.3 -8516.1 -8665 
-8557.4 -8691.7 -8562.5 -8680 -8591.4 -8641.2 -8558.9 -8630.9 -8576.2 
-8562.1 -8461.1 -8555.1 -8492.8 -7391.4 -7262.9 -7624.8 -7538.3 -8003.2 
-7789.1 -8398.7 -8200.1 -8825.4 -8602 -8998.4 -8998.8 -8837.3 -8775.2 
-8616.1 -9027.4 -8983.7 -8708.8 -8893.5 -8279.8 -8486.5 -7920.6 -8106 
-7610.9 -7782.6 -7367 -7514.8 -8558.4 -8137.5 -8390.6 -8561.1 -8518.6 
-8328.6 -8391.5 -8219.3 -8521 -8587.7 -8823.4 -8793.4 -8994.5 -8921.2 
-8899.7 -9026.9 -8057 -8199.5 -8368.1 -8290 -8452.6 -8292.2 -8484 
-8679.6 -8330 -8236.4 -8561.3 -8380 -8795 -8667.5 -8904.1 -8480.8 
-8628.8 -7993.4 -8142.4 -7672.4 -8295 -8103.8 -8332 -8157.8 -8321 
-8221.2 -8302.6 -8211.1 -8327.4 -8207.6 -8336.6 -8187.1 -8106.9 -8293.2 
-7648.7 -7840.5 -7430.4 -7561.8 -8395.4 -8534.1 -8458.8 -8575.4 -8604.6 
-8572.6 -8549.2 -8637.2 -8540.8 -8595.5 -8524.8 -8631.7 -7473.2 -7795.6 
-7624.2 -7542 -7870.4 -7684.7 -8216 -8040.9 -8615.9 -8384.6 -8983.5 
-8822.4 -8243.1 -7787.5 -8097 -8067.9 -8623.6 -8544.8 -8712.3 -7533.2 
-7826.6 -7406.8 -8008.5 -7792.4 -8037 -7916 -8004.6 -7867.9 -8129.6 
-7802.4 -8707.8 -8808.6 -8978 -8897.6 -8935.7 -8996.8 -8714.9 -8881.3 
-8796.5 -8987.3 -7488.9 -7522 -8057.7 -7933.6 -8742.5 -8792.7 -8048.2 
-7943.9 -8717 -8807.4 -8676.2 -8785.8 -8730.7 -8744.5 -8749.7 -8807.8 
-8680.4 -8737.9 -7604.9 -7515.8 -8007.9 -7794.2 -8407.1 -8198.6 -8810.8 
-8629.1 -8289.7 -8545.8 -7942.8 -8118.5 -7632.2 -7784.7 -8960.6 -8902.8 
-7560 -7495 -7587.3 -7459.4 -8756.6 -8805 -8767.7 -7518.7 -7488.8 
-7534 -8922.9 -9023 -8547 -8695.8 -7663.7 -7557.9 -7539.6 -8851.5 
-8964.9 -7831.9 -7711.3 -8900.1 -8903.5 -8874.8 -8961.9 -8169.9 -8359.5 
-8130.2 -8004.1 -8849.6 -8896.7 -8909.2 -8898.5 -8043.9 -7917.7 -7998.6 
-8607 -8342.9 -8996.2 -8961.5 -7820.1 -7987 -7671.8 -7468.2 -7395.6 
-7548.5 -7516.2 -8899.7 -8899.6 -8930.9 -8972.3 -9022.6 -7549.5 -7659.3 
-7484.8 -7493.5 -8776 -8916.5 -8918 -8986.3 -8598.9 -8719.8 -8398.5 
-7521.7 -7584 -7461.3 -7503.6 -7253.4 -9036 -8964.1 -9030.2 -8989.2 
-9004.1 -8982.7 -9026.7 -8976.4 -7674.5 -7518.4 -8006.7 -7770.2 -8338.4 
-8180.3 -8032.1 -8230.4 -7484.9 -7473.9 -9029.6 -7539.2 -8562.7 -8705.6 
-8331.1 -7587.2 -7567.1 -7733.1 -7874 -7491.7 -7469.1 -8702.9 -8819.4 
-8483 -7385.5 -7484.6 -7501.7 -8786.5 -8626.6 -8784.8 -8667 -7790.2 
-7668.2 -8125 -7971.2 -8686.3 -7667.2 -8502.7 -8352.2 -8382.6 -8268.7 
-8067.9 -8396.2 -8222.2 -8244.5 -7851.6 -8013 -7683.7 -7649.4 -7773.7 
-7745.4 -7965.3 -8018.4 -7944.7 33614 40132 46750 51939 8902.7 
14543 20139 24982 -6957.5 -4470 -1469.6 1356.7 -9597 -9322.4 
-9051.9 -8805.9 -9910.9 -9813.3 -9771.4 -9820.4 -10055 -10007 -9999.8 
-10049 -10130 -10110 -10116 -10172 -10182 -10149 -10176 -10225 
-10152 -10165 -10168 -10194 -9816.1 -9723.8 -9767.3 -9755.2 -9819.1 
-10244 -10411 -9911.4 -10276 -10661 -9981.5 -10337 -10712 -10016 
-10355 -10809 -10069 -10380 -10830 -10089 -10397 -10857 -10014 
-10394 -10883 -9900.5 -10416 -10840 -9869.9 -10405 -10787 -9859.1 
-10419 -10703 -9910.5 -10419 -10802 -9993.1 -10399 -10828 -10027 
-10408 -10897 -10069 -10381 -10955 -10093 -10392 -10911 -10085 
-10394 -10929 -10013 -10391 -11049 -9948 -10397 -10881 -9927.2 
-10352 -10720 -9900.8 -10328 -10456 9434.6 3667.5 -352.29 -3782.3 
-6354.4 -7792.6 -8681.8 -9279.8 -9527.4 -9559.8 -9688 -9849.7 -9969.8 
-9930.3 -9965.4 -10045 -10152 -10115 -10128 -10161 -10245 -10221 
-10218 -10226 -10308 -10278 -10272 -10271 -10332 -10309 -10293 
-10311 -10301 -10288 -10301 -10295 -9959 -10034 -10016 -10131 
-10145 -10198 -10166 -10023 -10207 -10185 -10012 -10201 -10259 
-10002 -10195 -10262 -10209 -10356 -10325 -10247 -10389 -10346 
-10219 -10357 -10318 -10185 -10289 -10255 13902 13146 13131 
13843 -5630.7 -5691.4 -5719.9 -5722.6 -9093.6 -8911.4 -8900 -9062.9 
-9659.1 -9442.9 -9337.2 -9551.9 -9850.4 -9743.2 -9709.3 -9758.1 -9994.4 
-9967.1 -9999.8 -10011 -10105 -10090 -10105 -10107 -10254 -10247 
-10244 -10231 -10090 -10085 -10084 -10118 -9977.7 -9966.4 -9980.6 
-10019 -6360.8 -6096.5 -6116.2 -6444.8 -9414 -9178.4 -9137.9 -9379.9 
-10034 -9990 -9994 -9998 -10083 -9982.6 -9981.2 -10008 -10143 
-10075 -10078 -10095 -10160 -10136 -10144 -10155 -10199 -10182 
-10193 -10220 -10233 -10219 -10229 -10265 -10238 -10225 -10221 
-10234 -10069 -10037 -10033 -10053 -9964.5 -10027 -10291 -9964.2 
-10093 -10358 -9972.3 -10117 -10356 -9982 -10122 -10360 -9988.2 
-10124 -10375 -9980.4 -10122 -10378 -9980.8 -10047 -10402 -9982.2 
-10116 -10384 -9987.4 -10128 -10388 -9992.4 -10124 -10395 -9991.4 
-10121 -10395 -9987.5 -10114 -10394 -9993.3 -10034 -10414 -9991.4 