# vtk DataFile Version 4.2
vtk output
ASCII
DATASET UNSTRUCTURED_GRID
POINTS 8741 float
-47.835 -42.4661 30.4263 -47.8352 -30.4661 30.4173 -47.8362 30.5339 30.3715 
-47.8363 42.5339 30.3625 -43.8372 46.5339 30.2768 -31.8398 46.5339 30.0289 
29.1472 46.5339 28.7687 41.1446 46.5339 28.5208 45.1438 42.5339 28.4412 
45.144 30.5339 28.4502 45.1449 -30.4661 28.496 45.1451 -42.4661 28.505 
41.146 -46.4661 28.5907 29.1486 -46.4661 28.8386 -43.8358 -46.4661 30.3466 
-31.8384 -46.4661 30.0987 28.9509 46.5268 19.2708 28.5171 46.511 -1.72475 
40.5145 46.511 -1.97265 40.9483 46.5268 19.0229 -32.0361 46.5268 20.531 
-44.0335 46.5268 20.7789 -44.4673 46.511 -0.21666 -32.4699 46.511 -0.46456 
44.9476 42.5268 18.9432 -48.0326 42.5268 20.8645 44.5137 42.511 -2.05229 
44.5139 30.511 -2.04328 44.9477 30.5268 18.9522 -48.0324 30.5268 20.8735 
-48.4662 30.511 -0.12201 -48.4664 42.511 -0.13102 44.9487 -30.4732 18.998 
-48.0315 -30.4732 20.9193 44.5149 -30.489 -1.99748 44.515 -42.489 -1.98847 
44.9489 -42.4732 19.007 -48.0313 -42.4732 20.9283 -48.4651 -42.489 -0.0672 
-48.4653 -30.489 -0.07621 40.9498 -46.4732 19.0927 -44.0321 -46.4732 20.8487 
40.5159 -46.489 -1.90283 28.5185 -46.489 -1.65492 28.9523 -46.4732 19.3406 
-32.0346 -46.4732 20.6008 -32.4685 -46.489 -0.39474 -44.4659 -46.489 -0.14683 
-32.0349 -26.4732 20.5858 -28.0357 -30.4732 20.5061 -28.0355 -42.4732 20.5151 
24.9531 -42.4732 19.4202 24.9529 -30.4732 19.4112 28.952 -26.4732 19.3256 
40.9495 -26.4732 19.0777 40.9487 26.5268 19.0379 28.9512 26.5268 19.2858 
24.952 30.5268 19.3654 24.9518 42.5268 19.3564 -28.0369 42.5268 20.4513 
-28.0367 30.5268 20.4603 -32.0358 26.5268 20.546 -44.0332 26.5268 20.7939 
-44.0324 -26.4732 20.8337 52.665 30.4802 -43.2204 52.6647 46.4802 -43.2324 
43.6665 55.4802 -43.0533 27.6699 55.4802 -42.7227 27.6701 46.4802 -42.716 
23.671 42.4802 -42.6303 23.671 41.6802 -42.6297 -2.82336 41.6802 -42.0823 
-2.8232 31.2802 -42.0745 23.6711 31.2802 -42.6219 23.6712 30.4802 -42.6213 
27.6704 26.4802 -42.701 28.4702 26.4802 -42.7175 28.4706 -0.01977 -42.6976 
38.8684 -0.01977 -42.9124 38.868 26.4802 -42.9323 43.6669 30.4802 -43.0345 
39.6678 26.4802 -42.9489 40.0393 46.4937 -24.9677 28.0419 46.4937 -24.7198 
28.0418 55.4937 -24.7266 44.0384 55.4937 -25.0571 53.0366 46.4937 -25.2363 
53.0368 30.4937 -25.2243 44.0386 42.4937 -25.0474 44.0387 30.4937 -25.0383 
28.5171 46.511 -1.72475 24.518 42.511 -1.63911 24.5182 30.511 -1.6301 
28.5174 26.511 -1.70973 40.5148 26.511 -1.95764 44.5139 30.511 -2.04328 
40.5145 46.511 -1.97265 44.5137 42.511 -2.05229 23.9191 31.2892 -30.6245 
23.9189 41.6892 -30.6323 -2.57529 31.2892 -30.077 -2.57545 41.6892 -30.0848 
39.1159 26.4892 -30.9349 28.7181 26.4892 -30.7201 39.1163 -0.01076 -30.915 
28.7185 -0.01076 -30.7002 24.518 42.511 -1.63911 24.5182 30.511 -1.6301 
28.5174 26.511 -1.70973 40.5148 26.511 -1.95764 -44.5142 26.4802 -41.2094 
-44.5138 -0.01977 -41.1895 -34.116 -0.01977 -41.4044 -34.1164 26.4802 -41.4243 
-33.3166 26.4802 -41.4408 -29.3175 30.4802 -41.5264 -29.3175 31.2802 -41.527 
-2.8232 31.2802 -42.0745 -2.82336 41.6802 -42.0823 -29.3177 41.6802 -41.5348 
-29.3177 42.4802 -41.5354 -33.3169 46.4802 -41.4558 -33.3171 55.4802 -41.4626 
-49.3136 55.4802 -41.132 -58.3116 46.4802 -40.9393 -58.3113 30.4802 -40.9273 
-49.3133 30.4802 -41.1132 -45.314 26.4802 -41.1929 -57.9395 30.4937 -22.9312 
-57.9397 46.4937 -22.9432 -48.9418 55.4937 -23.1359 -32.9452 55.4937 -23.4664 
-32.9451 46.4937 -23.4596 -44.9425 46.4937 -23.2117 -48.9416 42.4937 -23.1261 
-48.9414 30.4937 -23.1171 -32.4699 46.511 -0.46456 -28.4707 42.511 -0.54419 
-28.4705 30.511 -0.53518 -32.4696 26.511 -0.44955 -44.467 26.511 -0.20164 
-48.4662 30.511 -0.12201 -44.4673 46.511 -0.21666 -48.4664 42.511 -0.13102 
-29.0696 31.2892 -29.5296 -29.0698 41.6892 -29.5374 -2.57545 41.6892 -30.0848 
-2.57529 31.2892 -30.077 -44.2663 26.4892 -29.212 -33.8685 26.4892 -29.4268 
-33.8681 -0.01076 -29.4069 -44.2659 -0.01076 -29.1921 -28.4707 42.511 -0.54419 
-28.4705 30.511 -0.53518 -32.4696 26.511 -0.44955 -44.467 26.511 -0.20164 
38.8688 -26.5198 -42.8926 38.8684 -0.01977 -42.9124 28.4706 -0.01977 -42.6976 
28.471 -26.5198 -42.6777 27.6712 -26.5198 -42.6612 23.6721 -30.5198 -42.5755 
23.6721 -31.3197 -42.5749 -2.82222 -31.3197 -42.0275 -2.82206 -41.7197 -42.0197 
23.6723 -41.7197 -42.5671 23.6723 -42.5197 -42.5665 27.6715 -46.5197 -42.6461 
27.6716 -55.5197 -42.6394 43.6682 -55.5197 -42.9699 52.6662 -46.5197 -43.1626 
52.6659 -30.5198 -43.1746 43.6678 -30.5198 -42.9887 39.6686 -26.5198 -42.9091 
53.0378 -30.5062 -25.1785 53.038 -46.5062 -25.1665 44.0401 -55.5062 -24.9738 
28.0435 -55.5062 -24.6432 28.0434 -46.5062 -24.65 40.0408 -46.5062 -24.8979 
44.0399 -42.5062 -24.9835 44.0397 -30.5062 -24.9925 28.5185 -46.489 -1.65492 
24.5193 -42.489 -1.57529 24.5191 -30.489 -1.5843 28.5182 -26.489 -1.66994 
40.5156 -26.489 -1.91785 44.5149 -30.489 -1.99748 40.5159 -46.489 -1.90283 
44.515 -42.489 -1.98847 23.92 -31.3107 -30.5775 23.9202 -41.7107 -30.5697 
-2.57416 -41.7107 -30.0222 -2.57432 -31.3107 -30.03 39.1167 -26.5107 -30.8951 
28.7189 -26.5107 -30.6803 28.7185 -0.01076 -30.7002 39.1163 -0.01076 -30.915 
24.5193 -42.489 -1.57529 24.5191 -30.489 -1.5843 28.5182 -26.489 -1.66994 
40.5156 -26.489 -1.91785 -44.4662 -26.489 -0.16185 -32.4688 -26.489 -0.40975 
-28.4696 -30.489 -0.48938 -28.4694 -42.489 -0.48037 -33.3158 -26.5198 -41.401 
-45.3132 -26.5198 -41.1531 -44.5134 -26.5198 -41.1696 -44.2655 -26.5107 -29.1722 
-33.8677 -26.5107 -29.387 -34.1156 -26.5198 -41.3844 -29.3164 -42.5197 -41.4716 
-29.3166 -30.5198 -41.4806 -29.3166 -31.3197 -41.48 -29.0687 -31.3107 -29.4826 
-29.0685 -41.7107 -29.4748 -29.3164 -41.7197 -41.4722 -48.9403 -42.5062 -23.0623 
-48.9404 -30.5062 -23.0713 -44.9411 -46.5062 -23.1419 -32.9436 -46.5062 -23.3898 
-44.2659 -0.01076 -29.1921 -33.8681 -0.01076 -29.4069 -34.116 -0.01977 -41.4044 
-44.5138 -0.01977 -41.1895 -2.57432 -31.3107 -30.03 -2.57416 -41.7107 -30.0222 
-2.82222 -31.3197 -42.0275 -2.82206 -41.7197 -42.0197 -32.9435 -55.5062 -23.3831 
-48.9401 -55.5062 -23.0525 -57.9383 -46.5062 -22.8733 -57.9385 -30.5062 -22.8853 
-58.3104 -30.5198 -40.8815 -49.3123 -30.5198 -41.0674 -58.3101 -46.5197 -40.8695 
-33.3155 -46.5197 -41.386 -33.3153 -55.5197 -41.3792 -49.3119 -55.5197 -41.0487 
-45.3662 -46.1616 30.378 -46.6637 -45.2945 30.4042 -47.5306 -43.9968 30.4211 
-47.8351 -39.4661 30.424 -47.8351 -36.4661 30.4218 -47.8352 -33.4661 30.4195 
-47.8353 -27.4161 30.415 -47.8353 -24.3661 30.4127 -47.8353 -21.3161 30.4104 
-47.8354 -18.2661 30.4081 -47.8354 -15.2161 30.4058 -47.8355 -12.1661 30.4035 
-47.8355 -9.11607 30.4012 -47.8356 -6.06607 30.399 -47.8356 -3.01607 30.3967 
-47.8357 0.03393 30.3944 -47.8357 3.08392 30.3921 -47.8358 6.13392 30.3898 
-47.8358 9.18392 30.3875 -47.8359 12.2339 30.3852 -47.8359 15.2839 30.3829 
-47.836 18.3339 30.3806 -47.836 21.3839 30.3783 -47.836 24.4339 30.376 
-47.8361 27.4839 30.3738 -47.8362 33.5339 30.3692 -47.8362 36.5339 30.367 
-47.8363 39.5339 30.3647 -47.5319 44.0646 30.355 -46.6651 45.3623 30.3361 
-45.3676 46.2294 30.3087 -40.8379 46.5339 30.2148 -37.8385 46.5339 30.1529 
-34.8392 46.5339 30.0909 -28.7905 46.5339 29.9659 -25.7411 46.5339 29.9029 
-22.6918 46.5339 29.8399 -19.6424 46.5339 29.7769 -16.5931 46.5339 29.7139 
-13.5437 46.5339 29.6509 -10.4944 46.5339 29.5879 -7.44502 46.5339 29.5249 
-4.39567 46.5339 29.4618 -1.34633 46.5339 29.3988 1.70302 46.5339 29.3358 
4.75237 46.5339 29.2728 7.80172 46.5339 29.2098 10.8511 46.5339 29.1468 
13.9004 46.5339 29.0838 16.9498 46.5339 29.0208 19.9991 46.5339 28.9578 
23.0485 46.5339 28.8948 26.0978 46.5339 28.8317 32.1465 46.5339 28.7068 
35.1459 46.5339 28.6448 38.1452 46.5339 28.5828 42.675 46.2294 28.4894 
43.9724 45.3623 28.4633 44.8394 44.0646 28.4463 45.1438 39.5339 28.4435 
45.1439 36.5339 28.4457 45.144 33.5339 28.448 45.144 27.4839 28.4525 
45.1441 24.4339 28.4548 45.1441 21.3839 28.4571 45.1442 18.3339 28.4594 
45.1442 15.2839 28.4617 45.1443 12.2339 28.4639 45.1443 9.18392 28.4662 
45.1444 6.13392 28.4685 45.1444 3.08392 28.4708 45.1445 0.03393 28.4731 
45.1445 -3.01607 28.4754 45.1446 -6.06607 28.4777 45.1446 -9.11607 28.48 
45.1447 -12.1661 28.4823 45.1447 -15.2161 28.4846 45.1447 -18.2661 28.4868 
45.1448 -21.3161 28.4891 45.1449 -24.3661 28.4914 45.1449 -27.4161 28.4937 
45.145 -33.4661 28.4983 45.145 -36.4661 28.5005 45.1451 -39.4661 28.5028 
44.8407 -43.9968 28.5124 43.9738 -45.2945 28.5313 42.6764 -46.1616 28.5588 
38.1467 -46.4661 28.6526 35.1473 -46.4661 28.7146 32.148 -46.4661 28.7766 
26.0993 -46.4661 28.9016 23.0499 -46.4661 28.9646 20.0006 -46.4661 29.0276 
16.9512 -46.4661 29.0906 13.9019 -46.4661 29.1536 10.8525 -46.4661 29.2166 
7.80316 -46.4661 29.2796 4.75381 -46.4661 29.3426 1.70447 -46.4661 29.4056 
-1.34488 -46.4661 29.4687 -4.39423 -46.4661 29.5317 -7.44358 -46.4661 29.5947 
-10.4929 -46.4661 29.6577 -13.5423 -46.4661 29.7207 -16.5916 -46.4661 29.7837 
-19.641 -46.4661 29.8467 -22.6903 -46.4661 29.9097 -25.7397 -46.4661 29.9727 
-28.789 -46.4661 30.0357 -34.8377 -46.4661 30.1607 -37.8371 -46.4661 30.2227 
-40.8364 -46.4661 30.2847 29.0163 46.5291 22.4368 29.0817 46.5315 25.6027 
28.579 46.5133 1.27461 28.641 46.5155 4.27397 28.703 46.5178 7.27333 
28.765 46.52 10.2727 28.827 46.5223 13.272 28.8889 46.5245 16.2714 
31.5164 46.511 -1.78673 34.5158 46.511 -1.8487 37.5151 46.511 -1.91068 
40.5765 46.5133 1.0267 40.6385 46.5155 4.02606 40.7004 46.5178 7.02542 
40.7624 46.52 10.0248 40.8244 46.5223 13.0241 40.8864 46.5245 16.0235 
41.0138 46.5291 22.1889 41.0792 46.5315 25.3548 -31.9706 46.5291 23.6969 
-31.9052 46.5315 26.8629 25.9016 46.5268 19.3338 22.8522 46.5268 19.3968 
19.8029 46.5268 19.4598 16.7535 46.5268 19.5228 13.7042 46.5268 19.5858 
10.6548 46.5268 19.6488 7.60546 46.5268 19.7118 4.55611 46.5268 19.7748 
1.50676 46.5268 19.8379 -1.54259 46.5268 19.9009 -4.59193 46.5268 19.9639 
-7.64128 46.5268 20.0269 -10.6906 46.5268 20.0899 -13.74 46.5268 20.1529 
-16.7893 46.5268 20.2159 -19.8387 46.5268 20.2789 -22.888 46.5268 20.3419 
[...]
CELL_DATA 12638
SCALARS cell_scalars float
LOOKUP_TABLE default
-9353.1 -8922.4 -9412.4 -9667.2 -8931.8 -9356 -9349.7 -9278.4 -9585.4 
-9316.1 -9744.6 -9383.9 -9848.3 -9580.9 -9941 -9695.2 -10005 -9734.5 
-10060 -9653 -9940.2 -9483.5 -9777 -9269.6 -9597 -9075.3 -9434.5 
-8870.5 -9250.2 -8640.6 -9209.1 -8517.1 -8888.7 -8271 -8882.7 -8176.7 
-8611.1 -7963.9 -8599.2 -8411.1 -8889.1 -8688.3 -9202.9 -9069.8 -9558.7 
-9292.2 -9718.8 -9406.5 -9819.3 -9510.9 -9932.5 -9694 -10099 -9775.2 
-10123 -9849.2 -10149 -9745.9 -10015 -9565.2 -9880.9 -9442 -9843 
-9453.4 -10030 -9990.9 -9547 -9977.7 -10079 -9452.6 -9972.7 -9332.9 
-9918.3 -9267.1 -9756.8 -9192.5 -9828.3 -9197.7 -9778 -9229.9 -9834.9 
-9164.3 -9931.8 -9279.1 -10002 -9249.5 -10049 -9283.9 -10064 -9303.1 
-10090 -9266.1 -9976.4 -9262.5 -9978.9 -9223.6 -9975.3 -9238.2 -9945 
-9190.6 -9954.6 -9221.5 -9963.5 -9175.8 -9994.8 -9238.1 -10008 -9203.9 
-10027 -9215.4 -9937.4 -9179.9 -9864.2 -9109.5 -9738.2 -9075.4 -9731.3 
-9103.2 -9650.1 -9023.8 -9547.5 -9079.9 -9617.9 -9047.7 -9743.6 -9229.9 
-9930 -9716.9 -9278.3 -9781.9 -9834.9 -9207.5 -9634 -9270.8 -9712 
-9394.8 -9863.7 -9584.3 -9979.2 -9734 -10116 -9798.4 -10081 -9725.9 
-10037 -9617.1 -9917.6 -9515.5 -9856.7 -9434.6 -9732.7 -9206.6 -9443.4 
-8923.9 -9225.7 -8689.7 -8907 -8306.3 -8565.1 -7889.7 -8672 -8180.1 
-8957.6 -8354.4 -8839.5 -8452.4 -8890.5 -8650.2 -9193.3 -8842.1 -9376.7 
-9056.5 -9589.6 -9278 -9757.8 -9472.8 -9885.6 -9681.6 -10023 -9714.8 
-9981.7 -9619.4 -9974.8 -9555 -9854.6 -9430.7 -9728.9 -9430.9 -9798 
-9634.9 -9110.4 -9490 -9573.8 -9133.7 -9497.5 -9041.3 -9388.7 -8934.5 
-9421 -9023.5 -9417.4 -8999 -9397 -8996.2 -9333.1 -8909.9 -9280.7 
-8935.6 -9181.7 -8886.6 -9092 -8908.7 -9115.3 -8904.9 -9088.7 -8868.9 
-9099.3 -8849.3 -9086.6 -8870.9 -9047.7 -8838.1 -9074 -8874 -9074.7 
-8838.5 -9041.2 -8808.2 -9031.5 -8800.3 -9050.3 -8790.7 -8994.7 -8816.1 
-9052.8 -8840.3 -9129.5 -8797.5 -9203.5 -8787.1 -9241.5 -8729.8 -9256.8 
-8769.6 -9302.4 -8811.7 -9233 -8763.8 -8767.1 -8979.5 -8939.9 -9101 
-8911.3 -8986.2 -8977.3 -9045.4 -9034.8 -8924.4 -8907.4 -8827 -8815.6 
-8740.6 -8908.1 -8779.1 -9108.5 -9032.3 -9212.9 -9137.5 -9329.6 -9255.2 
-9441.3 -9381.1 -9429.4 -9420.1 -9230.6 -9288 -9021.7 -9035.2 -8797.4 
-8880 -8604.2 -8687.4 -8413.8 -8459.8 -8208.2 -8283.1 -8075 -8118.1 
-7966.7 -8008.1 -7881.1 -7902.1 -8126.9 -7919.1 -8435.4 -8324.2 -8653.5 
-8559.9 -8958.7 -8786.7 -9198.8 -9089.8 -9252.3 -9183.4 -9331.3 -9270.5 
-9476 -9408.5 -9555.6 -9493.5 -9488.8 -9546.9 -9288.5 -9336.3 -9042.5 
-9124.4 -8797.5 -8836.6 -8772.2 -8931.6 -8945.3 -8893.3 -8930.6 -8866.7 
-8864.2 -8972.7 -8954.8 -8965.7 -8980.6 -9003.6 -9000.3 -8974.6 -8971.4 
-8970.7 -8951.3 -8977.9 -8930.8 -8966.3 -8939.4 -8929.9 -8908.7 -8968.4 
-8943 -8959.4 -8924.6 -8924.1 -8938.6 -8929.9 -8939.6 -8897.5 -8922.2 
-8921.3 -8920.5 -8929.6 -8941.6 -8905.3 -8942 -8920.9 -8919.6 -8872.3 
-8927.1 -8858.2 -8899.3 -8734.3 -8857.3 -8724.2 -8820.3 -8715.9 -8781.9 
-8833.6 -8858.2 -8857.5 -8846.9 -8845.2 -8863.4 -8862.4 -8864.1 -8776.4 
-8841.1 -8834.4 -8837.4 -8816 -8824.5 -8848.7 -8862.7 -8820.2 -8826 
-8820.5 -8829.2 -8819.7 -8832.7 -8811.8 -8809.8 -8785.7 -8821.4 -8769.6 
-8803.9 -8768.4 -8785.6 -8763.9 -8772.8 -8765.1 -8762.6 -8747.2 -8771.3 
-8724.1 -8744.1 -8698.3 -8719.9 -8707.6 -8703.5 -8690.8 -8730.6 -8715.6 
-8724.9 -8678 -8688.8 -8726.4 -8695 -8676.3 -8695 -9079.1 -8973 
-9290.5 -9156.4 -9497.2 -9372 -9531.1 -9505 -9469.7 -9444.4 -9360.5 
-9367.8 -9221.5 -9240.2 -9090.8 -9120 -9044.3 -8986.1 -8786.9 -8925.7 
-8388.5 -8582 -8156.2 -8363.5 -7910.4 -8033.2 -7942.8 -7838.1 -8067.3 
-7929.2 -8201 -8074.9 -8383.6 -8269.5 -8594.6 -8463.5 -8816.2 -8683.1 
-9027.1 -8885.1 -9253.6 -9116.6 -9420.3 -9292.7 -9465.4 -9464.7 -9429.1 
-9420.2 -9290.1 -9305.2 -9141.1 -9174.4 -8978 -9027.4 -8934.9 -9015.3 
-8680.7 -8720.5 -8915.3 -8918 -8748.2 -8943.3 -9006.5 -9169.2 -9036.3 
-8891.1 -8901.7 -9105.8 -8981.8 -9259.6 -9207.2 -9307 -9191.5 -8839.1 
-8776.3 -9380.8 -9303.9 -9469.5 -9386.9 -9405.7 -9433.9 -9209.3 -9308.7 
-8975.3 -9130.8 -8844.5 -8913.3 -8636.8 -8729.7 -8431.4 -8530.4 -8240.7 
-8325.3 -8095.7 -8147.1 -7985.6 -8003.7 -7843.9 -7945.6 -7995.1 -7921.4 
-8356.4 -8159 -8531 -8494.2 -8778.5 -8697.1 -9067.9 -8894.9 -9229.8 
-9116 -9298.7 -9224.8 -9440 -9343.5 -9451.7 -9418.8 -9503.8 -9483 
-9304.8 -9413.3 -9434.4 -9477.4 -9346.2 -9397.9 -9252.3 -9314.8 -9135.2 
-9193.7 -8976.2 -9065.3 -8840.7 -8939.1 -8542.8 -8664.8 -8303.5 -8371.5 
-7861.7 -8145.6 -7937.8 -7877.3 -8040.4 -8000.1 -8131.4 -8049.1 -8258 
-8216.1 -8439.1 -8346.3 -8660.6 -8531.9 -8857.3 -8716.4 -9059 -8923.1 
-9235 -9114 -9428.8 -9329 -9362.5 -9409 -9270.4 -9312.2 -9170.9 
-9211.8 -9075.7 -9192.1 -9019.5 -9093.6 -8953.3 -9043.4 -8991.6 -8993.4 
-8993 -9009.4 -8964.1 -9098.7 -9014.2 -8994.4 -9056.3 -9129.2 -9086.5 
-9131.9 -9056.5 -9091.1 -9065.7 -9111.2 -9062.2 -9103.2 -9063.3 -9098.2 
-9038.2 -9094.7 -9034.6 -9096.4 -9046.6 -9058.5 -9021.2 -9071.3 -9010.1 
-9074.8 -8971.6 -9085 -8957.9 -9012.2 -8918.3 -8981.9 -8931 -8958.1 
-8884.9 -8950.4 -8913.7 -8950.3 -8963.7 -8928.7 -8910.1 -8943.4 -8913.8 
-8925.7 -8898.3 -8942.8 -8895.2 -8919.6 -8920.1 -8948.2 -8960.8 -8984.9 
-8883.4 -9006.4 -8904.9 -8973.9 -8891.7 -8976.8 -8874.9 -8961.4 -8905.8 
-8946.2 -8860.3 -8957.8 -8874.5 -8943.1 -8855.9 -8927.1 -8843.1 -8916.2 
-8844.3 -8920.9 -8844.4 -8895.4 -8844.4 -8886.5 -8852.4 -8905 -8845 
-8922.2 -8853.7 -8904.7 -8800.5 -8855.3 -8740.6 -8809.1 -8720.7 -8769.6 
-8706.6 -8721.8 -8703.4 -8772.6 -9005.1 -9101.4 -8822.5 -8798.8 -8845.4 
-8944.6 -8922.9 -8710.8 -8743.7 -8872.3 -8974.3 -8902.8 -9154 -9081.6 
-9011.4 -9092.2 -9364.2 -9300.8 -9151.1 -9126.6 -9095.9 -9149.6 -9265.4 
-9243 -9369.6 -9347.2 -9492.2 -9481.7 -9097.9 -9148.1 -9015.7 -9087.1 
-9345.1 -9412.9 -9412.3 -9452.2 -8886 -8847.5 -9133 -9253 -8932 
-9034.3 -8714.6 -8827.7 -8484.8 -8567.8 -8283.5 -8390.7 -8109.9 -8180.6 
-7940.5 -8030.2 -7804.7 -7900.7 -7862.9 -7784.2 -8304.9 -8000.9 -8578.3 
-8458.4 -8742.1 -8622.5 -8939.5 -8853.5 -9097.8 -9037.9 -9233.8 -9166.1 
-9285.4 -9238 -9384.6 -9333.4 -9514.7 -9458 -9392.2 -9481.6 -9192.7 
-9322.9 -9331.1 -9384.2 -9259.7 -9319.1 -9141.2 -9203.9 -8938.6 -9042 
-8737.1 -8832.1 -8535.1 -8648.9 -8323.9 -8450.5 -7946 -8161.6 -7849.4 
-7847.8 -8012 -7909 -8120.3 -8015 -8281.9 -8163.1 -8458.6 -8368.2 
-8661.2 -8572.7 -8896.9 -8793.2 -9122.5 -9003.1 -9359.3 -9264.8 -9409.4 
-9425.5 -9328.2 -9360.3 -9190 -9264 -9044.8 -9115.1 -9130.6 -9139.3 
-9135.9 -9175.3 -9109.2 -9179.9 -9158.3 -9121.8 -9173.4 -9178.5 -9147.4 
-9224.2 -9120.1 -9240.8 -9086.3 -9175 -9082.4 -9150.1 -9063.1 -9122.9 
-9062.3 -9093.2 -9077.2 -9097.6 -9081.4 -9084.3 -9039.4 -9082.1 -9085 
-9140.4 -9066.9 -9138.2 -9074.7 -9118.2 -9059.9 -9115.5 -8992.9 -9069.7 
-8993.3 -9053.1 -8924 -9048.7 -9043.9 -9081.4 -9047.7 -9135.2 -9124.8 
-9137.5 -9157.8 -9203.2 -9135 -9177.7 -9111.9 -9168.8 -9111.1 -9189.2 
-9123 -9194 -9108.5 -9186.7 -9115.4 -9179.1 -9109.4 -9165.7 -9097.4 
-9150.3 -9089.6 -9152.2 -9065.3 -9134.5 -9026 -9109.4 -8981.6 -9042.7 
-8961.4 -9019.3 -8930 -9006.9 -8933 -8981.2 -8905.4 -8964.1 -8868.6 
-8928.2 -8836.7 -8927.9 -8893 -8890.2 -8952.6 -8824.3 -8893 -8964.1 
-8952.4 -8992.4 -9001.1 -9075.7 -9126.4 -9090.5 -9029.7 -9107.6 -9296.1 
-9173.2 -9191.2 -9200.5 -9176.8 -9185.5 -9357.5 -9272.3 -9393.8 -9411.1 
-9225.7 -9306.8 -9478.7 -9418.4 -9406.1 -9487.5 -9332.8 -9403.8 -9246 
-9194.6 -9047.6 -9106.5 -9299 -9221.6 -9142.2 -9138.1 -9069.5 -9106.9 
-9387.5 -9326.4 -9469.5 -9420.1 -9148.9 -9149.6 -9055.9 -9173.6 -9321.6 
-9360.4 -9155 -9140.4 -9185.3 -9241.1 -9159.2 -9258.4 -9151.7 -9228.2 
-9173.8 -9237.9 -9192.5 -9250.1 -9200.7 -9250 -9209.6 -9236 -9222.8 
-9247.8 -9221 -9285 -9223.8 -9287.4 -9254.1 -9296.8 -9289.9 -9334.6 
-9290.6 -9323.2 -9277.7 -9371.4 -9210.6 -9188 -9239.6 -9239.8 -9197.9 
-9252.1 -9230.5 -9246.6 -9258.9 -9292.4 -9260.4 -9294.5 -9265.7 -9314.7 
-9227.3 -9319.4 -9261.1 -9317.1 -9234.7 -9306 -9252.6 -9303 -9228.9 
-9290 -9204.5 -9279.7 -9215.9 -9254 -9192.7 -9266.8 -9450.4 -9493.9 
-9394 -9465.8 -9240 -9351.9 -9046 -9166.4 -8864.4 -9000.4 -8724.2 
-8780 -8455.8 -8576.2 -8283 -8407 -7909.3 -8084.5 -7974 -7838 
-8070 -8003.7 -8165.7 -8081.3 -8276.9 -8236.2 -8451.9 -8369.6 -8573.9 
-8536.7 -8814.4 -8693.4 -9382.1 -9408.7 -9239.2 -9313.7 -9044 -9120 
-8844 -8941.7 -8634.6 -8756.7 -8394.9 -8528.8 -8209.4 -8298.8 -8000.9 
-8147 -7933.8 -7994.5 -7807.5 -7893.6 -8186.5 -7884.1 -8410.7 -8265.1 
-8610.1 -8520.5 -8815.7 -8681.1 -9001.4 -8900.6 -9169.4 -9047.6 -9267.8 
-9320.1 -9264.7 -9264.8 -9270.5 -9330.2 -9270.5 -9332.4 -9242.9 -9332.6 
-9238.1 -9237.4 -9228.4 -9264.3 -9160.3 -9243.7 -8936.7 -9220.8 -9194.1 
-9263.4 -9411 -9342.8 -9323.9 -9262.3 -9196.9 -9208.6 -9303.6 -9235.5 
-9254.5 -9211.2 -9401.6 -9245.1 -9405.5 -9367.1 -9291.5 -9383.2 -9203.3 
-9465.5 -9488.4 -9401 -9483.3 -9379.8 -9439.8 -9314.8 -9350.2 -9386.3 
-9420.2 -9332 -9356.3 -9418.3 -9378.3 -9376.4 -9439.6 -9405.6 -9426.4 
-9395.1 -9460.2 -9423.8 -9423.5 -9410.2 -9434.5 -9382.5 -9431.6 -9403.7 
-9409 -9393.8 -9399.3 -9391.5 -9385.6 -9364.6 -9380.5 -9317.7 -9345.9 
-9285.7 -9324 -9362.6 -9373.4 -9334 -9364.7 -9261.4 -9318.1 -9313.5 
-9340.1 -9417 -9451.4 -9485.6 -9506 -9416.9 -9485.4 -9440.2 -9474.7 
-9426.3 -9479.4 -9450.6 -9488.1 -9429.3 -9487.7 -9418.4 -9469 -9409 
-9452.2 -9379.5 -9438.7 -9397.7 -9469.7 -9407.5 -9475.6 -9427.5 -9486.8 
-9396.3 -9472.9 -9386.2 -9431.9 -9311.9 -9377 -9307.3 -9357.9 -9267.6 
-9352.9 -9507.4 -9458.1 -9423.7 -9459.1 -9371.3 -9394.4 -9224.5 -9280 
-9114.3 -9159.1 -8945.4 -9010.1 -8737.7 -8839.1 -8626 -8788.4 -8286.3 
-8467.4 -7677.3 -8118.5 -7855.1 -7758 -7899.1 -7922 -8107.1 -8034.7 
-8300.4 -8216.1 -8565.1 -8424.3 -8750.7 -8621.3 -9423.6 -9365.6 -9357.5 
-9439.5 -9126.3 -9257 -8891.1 -9020.6 -8664.1 -8775.4 -8506.9 -8545.7 
-8315.9 -8409.2 -8200.3 -8261.6 -8090.5 -8144.6 -8015.8 -7984.2 -7871.9 
-7934.4 -8085.4 -8045.4 -8477.4 -8374.6 -8615.4 -8542 -8864.9 -8783.1 
-9029.6 -8976.9 -9487.1 -9379.3 -9339.2 -9451.3 -9424.3 -9332.6 -9286.6 
-9366.8 -9195.6 -9313.3 -9120.5 -8833.8 -8939.3 -9158.3 -9025.2 -9396.9 
-9391.3 -9381 -9493.8 -9468.3 -9445.3 -9431.8 -9453 -9421.3 -9399.5 
-9480.3 -9479.8 -9437.5 -9480.7 -9471.2 -9441.7 -9418.1 -9445.8 -9445.1 
-9447.3 -9431.2 -9445.3 -9393.1 -9418.4 -9388.9 -9398.2 -9387.5 -9409.3 
-9394.4 -9412.3 -9450.1 -9428.2 -9426.8 -9467.3 -9387.4 -9444.2 -9376.9 
-9426.6 -9381.4 -9398.6 -9392.6 -9450.4 -9539.1 -9506 -9505.4 -9490.3 
-9517.3 -9530.8 -9521.6 -9496.3 -9526.5 -9504.2 -9535.8 -9482 -9512.5 
-9508 -9501.1 -9525.9 -9502.4 -9516.6 -9553 -9534.6 -9554.6 -9547.6 
-9552.8 -9541.3 -9549.3 -9585.8 -9488 -9563.6 -9472.9 -9506.3 -9464.4 
-9505.7 -9475.4 -9530.1 -9484.1 -9495.3 -9386.3 -9494.5 -9219.2 -9332.3 
-9074.9 -9167.5 -8916.1 -8967.1 -8754.4 -8835.4 -8659.6 -8747.2 -8409.4 
-8521.8 -8084.9 -8200.6 -7828.5 -7794.5 -7941.2 -7840.5 -8074.3 -7972.8 
-8215 -8161 -8398.6 -8307 -8574.5 -8477.7 -9407.4 -9431.6 -9394.9 
-9221 -9320.2 -9036.4 -9127.2 -8818.5 -8934.1 -8602.5 -8725.5 -8374.9 
-8479.1 -8204.7 -8266.1 -7992 -8107.3 -7879.7 -7921.1 -7710.2 -7822.2 
-8239.6 -7816.8 -8496.3 -8358.9 -8682.1 -8636.4 -8828.4 -8828.9 -9001.9 
-8921.1 -9354 -9411 -9492.7 -9528.1 -9186.1 -9303.8 -9348.9 -9302.7 
-9417.3 -9431.3 -9316.8 -9443.2 -9413 -9481.8 -9454.3 -9439.6 -9439.4 
-9282.9 -9381 -9177.5 -9221.8 -9134.7 -9481.3 -9442.7 -9400.4 -9325.5 
-9457.9 -9462.8 -9420 -9401.5 -9446.6 -9420.9 -9428.6 -9388.2 -9422.5 
-9369.6 -9441.4 -9391.7 -9430.4 -9388 -9395.6 -9384.7 -9395.3 -9387.9 
-8714.6 -8833.4 -9021.6 -8915.2 -9416.1 -9364.6 -9388.3 -9376.3 -9441.6 
-9356.5 -9473.2 -9506.7 -9523 -9507.3 -9543 -9505.6 -9539.1 -9504.7 
-9533.8 -9528.4 -9539.2 -9503.6 -9528.7 -9497.5 -9551.4 -9510.2 -9556.2 
-9535.3 -9551 -9535 -9544.4 -9536.3 -9508.5 -9528.1 -9498 -9516 
-9505.2 -9514.6 -9468.7 -9462 -9484.9 -9492.3 -9486.7 -9480.5 -9378.9 
-9458.3 -9248.5 -9264.8 -9071.4 -9198.9 -8961.4 -9016.8 -8790.1 -8899.1 
-8514.2 -8656.2 -8156.8 -8400.7 -7833.3 -7826.7 -7917.9 -7918.1 -8089 
-8016.4 -8200.2 -8128.8 -8356.9 -8252.4 -8526.8 -8447.3 -9142.8 -9247.1 
-8908.3 -9041.8 -8680.1 -8784.2 -8491.7 -8578.1 -8360.6 -8403.8 -8165.2 
-8283.2 -8032.7 -8060.7 -7903.8 -8027.3 -7828.3 -7873.2 -8229.1 -7987.1 
-8557.2 -8365.9 -8780.2 -8645.4 -8864.6 -8817.7 -9345.5 -9071 -9487.8 
-9313.4 -9244.2 -9371.3 -9301.1 -9388.4 -9237.3 -9125.7 -9213.4 -9388.9 
-9408.2 -9483.1 -9425.8 -9446.3 -8952.4 -9041.2 -8700.3 -8799.3 -8609.7 
-9253.9 -9340.9 -9251.8 -9311.6 -9038.9 -9181 -8926.4 -9034 -9128.5 
-9492.1 -9461.8 -9470 -9471 -9472.4 -9456.4 -9477.6 -9435.3 -9454.6 
-9442.7 -9428.9 -9415.3 -9428 -9402.6 -9465.8 -9393.6 -9421.5 -9390.3 
-9474.2 -9398.4 -9490.7 -9423.3 -9464.9 -9456.2 -9476.3 -9447.3 -9431.5 
-9397 -9139.2 -9185.9 -9004.7 -9077.9 -8884.6 -8955.8 -8641.1 -8779 
-8506.4 -8663.1 -8020.3 -8285.1 -7795.8 -7806.5 -7942.1 -7848.1 -8058.4 
-8000.3 -8215.5 -8115.8 -8408.6 -8291.6 -8793.4 -8893.9 -8591.8 -8667.9 
-8393.8 -8514.5 -8239.8 -8296.4 -8077.9 -8109.5 -7904.9 -8008.8 -7919.3 
-7905.7 -8068.8 -8031.3 -8458.7 -8317.3 -8737.4 -8653.4 -8973.3 -8814.5 
-9374 -9325.1 -9296.9 -9267.3 -9353.8 -9267.6 -9326.1 -9282.8 -9322.5 
-9261.7 -9298.4 -9270 -9296.9 -9240.7 -9271.8 -9235.9 -9243.3 -9199 
-9204.5 -9145.8 -9231.7 -9178.9 -9209.8 -9139.2 -9446.3 -9091.2 -9202.5 
-9207.9 -9148.8 -9320.6 -9395.2 -9177.6 -9244.1 -9390.1 -9410.8 -9295 
-8899.9 -8977.1 -9057.5 -9093.2 -9394.5 -9369.3 -8692.5 -8815.4 -9453.1 
-9375.8 -8971 -9080.4 -8489.1 -8615 -9362.1 -9373.6 -9155.8 -9097.7 
-9418.3 -9322.3 -9413.2 -9359.2 -9365.6 -9337.1 -9372.2 -9354.9 -9368.4 
-9367.8 -9397.9 -9349.1 -9282.2 -9324.1 -9255.3 -9210.6 -9260.4 -9198.8 
-9335.8 -9267.8 -8524.4 -8614 -8775.9 -8717.5 -8998.1 -8887.3 -9129.4 
-9207.5 -9118.8 -9164.2 -8791.9 -8921.7 -8514 -8666.5 -8117.3 -8353.8 
-7917.5 -7917.2 -7879.1 -7793.7 -7954.3 -7926.3 -8085.3 -8005 -8275.6 
-8208 -8347.2 -8425.8 -8068.7 -8197.6 -7970.8 -8064 -7968.4 -7984.2 
-7986 -7936.6 -8325.9 -7968.1 -8636.7 -8449.3 -8771.8 -8769.7 -8997.5 
-9079.7 -9160 -9132.1 -9127.1 -9082.2 -9107.2 -9055.8 -9133.8 -9054 
-9103.8 -9036.7 -9119.9 -9046.7 -9087.3 -9017 -9106 -9036 -9093.2 
-9039.3 -9042 -9022.6 -9048.6 -8984.7 -9187.9 -8989.6 -9272.3 -9222.1 
-9266.4 -9118.2 -9153.9 -9117.2 -9322.4 -9210.9 -9317.9 -9103.9 -9146.6 
-8944.7 -9092.2 -8862.6 -8963.2 -8924.8 -8753.9 -8816 -8627.3 -8388.3 
-8490 -8704.3 -8520.2 -8901.2 -8793.2 -8996.9 -9064.1 -8991.3 -8998.2 
-8964.7 -8897.2 -8927.8 -8873.7 -8907.4 -8855.3 -8890.6 -8833.7 -8900.6 
-8855 -8891.8 -8863.9 -8888.2 -8858.6 -8844.7 -8813.7 -8896.9 -8809.9 
-8860.2 -8828 -8888.1 -9021.9 -8734.1 -8813.6 -8466.2 -8665.5 -8007.2 
-8273.9 -7923.6 -7764.9 -8085.1 -8057.8 -8157.4 -8066.8 -8317.7 -8231.2 
-8418.8 -8514.1 -8246 -8358.6 -8061.6 -8159.1 -7865.4 -7955.8 -7763.9 
-7774.9 -8088.9 -7908.9 -8325.7 -8335.1 -8576.8 -8509.9 -9283.1 -9234.5 
-9245.2 -9232.1 -9155.5 -9159.2 -9207.8 -9120.8 -9242.5 -9120.9 -9241.5 
-9162.3 -9275.3 -9188.4 -9253.9 -9225.5 -9230.1 -9203.6 -9223.6 -9184.7 
-9271.1 -9238.7 -9208.6 -9134.9 -9044.6 -9134.9 -9140 -9237.5 -9191.5 
-9091 -9071.4 -8788.8 -8908.8 -8872.8 -8806.5 -8818.4 -8598.2 -8694.2 
-8962.9 -8948.8 -8822.4 -8759.2 -8691.7 -8585.7 -8440.7 -8543 -8382.3 
-8748.2 -8708 -8782.4 -8718.3 -8808.4 -8738.7 -8804.1 -8749.7 -8741.3 
-8681.2 -8712 -8660.5 -8727.7 -8665.4 -8724.9 -8666 -8667.1 -8628.2 
-8751 -8972.2 -9150.2 -9099.9 -9211 -9173.5 -9197 -9209 -9178.2 
-9180.7 -9121.8 -9134.6 -9104.5 -9089.8 -9065.3 -9108.5 -9081.9 -9061.4 
-9144.5 -9086.8 -9146.8 -9101.2 -8587.5 -8604.5 -8289 -8406.5 -7728.7 
-8049.2 -7874.4 -7817.3 -7931.2 -7879.6 -8135.3 -8048.4 -8323.7 -8377.9 
-8504.6 -8092.4 -8217.2 -8039.7 -8041.9 -7887.9 -8011.3 -7868.3 -7910.9 
-8267.5 -7997.8 -8675.8 -8411.9 -8575.9 -8714.9 -9008.1 -9120.9 -9084.6 
-9009.2 -8618.4 -8643.3 -8601.6 -8520 -8319.6 -8406.2 -8210.8 -8241.9 
-8051.8 -8087.8 -8927 -8990.7 -9095.3 -9035.5 -9102 -9008.2 -8031.1 
-8033.8 -9061 -8971.8 -8502.2 -8608.6 -8307.9 -8425.7 -8203.9 -8567.6 
-8517.8 -8867.8 -8979.8 -8736.4 -8994.6 -8889.9 -9032.6 -8926.3 -9077 
-9013.9 -9101 -9034.3 -9086.5 -9019.9 -9072.7 -8997.8 -7889.6 -7864.4 
-8217.3 -7930 -8410.9 -8306.6 -8556.2 -8490.5 -8544.4 -8475.5 -8587.6 
-8546.7 -8600.5 -8533.6 -8565.2 -8521.5 -8529.2 -8474.1 -8704.6 -8878.8 
-8316.2 -8555.2 -7919.3 -8181 -7898.5 -7954.5 -7962.2 -7879.7 -8074.4 
-7999.2 -8987.7 -8823.8 -8909.1 -8907.4 -8471.1 -8483.6 -8396.9 -8673.2 
-8858.1 -8558.1 -8813.9 -8778.8 -8838.9 -8845.5 -8771 -8815.2 -8887.5 
-8768.4 -8399.9 -8359.7 -8210.4 -8261.6 -8084.7 -8106.3 -8016.9 -8215.4 
-8320.8 -8171.1 -8596.4 -8667.5 -8847.5 -8817.9 -8396.6 -8336 -8854.8 
-8821.7 -8426.7 -8381.4 -8339.8 -8367.5 -8384.7 -8322.4 -8403 -8339.1 
-8359.5 -8343.6 -8328.3 -8434 -7976 -8096.6 -7923.1 -7882.9 -8036.4 
-7952.1 -7860 -7978.3 -7990.8 -7853.8 -8231.3 -8069.5 -8197.7 -8267.8 
-8768 -8693.2 -8348.3 -8581.5 -8340.4 -8293 -8301.3 -8547.4 -8596.4 
-8374.9 -8019.7 -8092.8 -7975.2 -7973.7 -8795.5 -8621.1 -8652 -8226.4 
-8195.4 -7972.2 -8111.1 -8247.9 -8163 -8261.6 -8234.8 -7960.5 -7915.8 
-7815.9 -7743.8 -8219.3 -8172.8 -8230.7 -8179.8 -8832.1 -8805.5 -8804.5 
-7958.5 -7820.1 -8145.4 -8081.1 -7975.9 -7879.7 -8680.1 -8582.6 -8595.5 
-8660.9 -8652.9 -8240.8 -8282.4 -8198.9 -8153.9 -8184.9 -8481.3 -8245.8 
-8321.8 -8350.8 -8016.1 -8086.2 -8114.9 -8116.8 -7954.5 -7988.6 -7910.5 
-8666.2 -8748.1 -8504.2 -8806.6 -8708.8 -8115.3 -8099.3 -8142.7 -8072.3 
-8159.9 -8088.1 -8126.6 -8083.1 -8315.1 -8429.6 -7959.2 -8113.3 -7931.5 
-7915.1 -7907.9 -7893 -8511 -8589.1 -8130.5 -8668.9 -7973.3 -8049.2 
-7865.1 -8366.7 -8394.5 -8153.7 -7949.7 -8412.9 -8524.3 -7966 -8035.4 
-7889.9 -8385.6 -8422.6 -8449.4 -7961.6 -7961.4 -7981.3 -7949.9 -8040.5 
-8150 -7808.5 -7814.6 -7973.5 -8255.9 -7925.5 -7940.2 -7932.9 -7906.8 
-7766.1 -7982.1 -7827 -7877.7 -7956.1 -7834.8 -8180.7 -8184.6 -8008.3 
-8057.6 -7795.5 -7739.4 -7854.1 30704 25864 19532 13246 5971.1 
2433.3 -1469 -4873.8 -7797.7 -8462.8 -9220.4 -9803.9 -10240 -10181 
-10224 -10335 -10534 -10475 -10476 -10519 -10659 -10617 -10609 
-10627 -10740 -10695 -10685 -10707 -10759 -10747 -10749 -10756 
-10782 -10739 -10724 -10739 -10408 -10397 -10425 -10458 -10456 
-10773 -10925 -10449 -10797 -11210 -10512 -10814 -11245 -10611 
-10807 -11299 -10587 -10818 -11304 -10551 -10827 -11303 -10505 
-10809 -11297 -10480 -10785 -11321 -10404 -10798 -11361 -10331 
-10810 -11249 -10315 -10811 -11158 -10359 -10794 -11157 -10280 
-10773 -11121 -10253 -10764 -11086 -10272 -10793 -11146 -10298 
-10792 -11070 -10339 -10762 -11150 -10355 -10738 -11105 -10377 
-10726 -11087 -10379 -10700 -10879 -10109 -10024 -10047 -10182 
-10330 -10277 -10282 -10355 -10449 -10414 -10414 -10454 -10523 
-10497 -10494 -10516 -10579 -10556 -10551 -10565 -10621 -10602 
-10595 -10605 -10668 -10634 -10628 -10645 -10687 -10665 -10667 
-10668 -10677 -10652 -10635 -10656 -10360 -10429 -10503 -10503 
-10831 -10947 -10881 -10608 -10874 -10856 -10640 -10862 -10849 
-10600 -10850 -10806 -10544 -10746 -10764 -10541 -10824 -10927 
-10517 -10672 -10711 -10413 -10585 -10592 45761 48668 47474 
41870 21008 24022 22311 15825 -94.621 1778.4 141.31 -3920.4 
-9761.6 -9502.2 -9746.6 -10148 -10625 -10567 -10566 -10611 -10829 
-10803 -10783 -10794 -10900 -10884 -10875 -10879 -10935 -10925 
-10921 -10920 -10996 -10990 -10988 -10992 -10753 -10710 -10731 
-10777 -10159 -10119 -10125 -10176 -10252 -10225 -10225 -10257 
-10336 -10315 -10315 -10345 -10408 -10389 -10389 -10413 -10463 
-10463 -10464 -10466 -10476 -10494 -10492 -10472 -10427 -10389 
-10379 -10417 -10558 -10537 -10537 -10571 -10541 -10519 -10519 
-10532 -10293 -10252 -10290 -10280 -10791 -11029 -11014 -10804 
-11031 -11032 -10876 -11039 -11090 -10962 -11041 -11126 -11028 
-11041 -11150 -11033 -11043 -11139 -11074 -11043 -11095 -10978 
-11041 -11085 -10967 -11043 -11071 -10966 -11046 -11086 -10946 
-11046 -11096 -10966 -11044 -11095 -10992 -11046 -11078 -10981 
-11039 -11082 -11001 -11049 -11169 -11008 -11053 -11170 -10944 