# vtk DataFile Version 4.2
vtk output
ASCII
DATASET UNSTRUCTURED_GRID
POINTS 8741 float
-49.6229 -42.4983 30.4228 -49.6229 -30.4983 30.4223 -49.6229 30.5017 30.4201 
-49.6229 42.5017 30.4197 -45.6229 46.5017 30.419 -33.6229 46.5017 30.4173 
27.3771 46.5017 30.4086 39.3771 46.5017 30.4069 43.3771 42.5017 30.4065 
43.3771 30.5017 30.4069 43.3771 -30.4983 30.4091 43.3771 -42.4983 30.4095 
39.3771 -46.4983 30.4102 27.3771 -46.4983 30.412 -45.6229 -46.4983 30.4224 
-33.6229 -46.4983 30.4207 27.3758 46.5013 20.9086 27.3728 46.5006 -0.09141 
39.3728 46.5006 -0.09312 39.3758 46.5013 20.9069 -33.6242 46.5013 20.9173 
-45.6242 46.5013 20.919 -45.6272 46.5006 -0.081 -33.6272 46.5006 -0.08271 
43.3758 42.5013 20.9065 -49.6242 42.5013 20.9197 43.3728 42.5006 -0.09354 
43.3728 30.5006 -0.09311 43.3758 30.5013 20.9069 -49.6242 30.5013 20.9201 
-49.6272 30.5006 -0.07986 -49.6272 42.5006 -0.08029 43.3758 -30.4987 20.9091 
-49.6242 -30.4987 20.9223 43.3728 -30.4994 -0.0909 43.3728 -42.4994 -0.09046 
43.3758 -42.4987 20.9095 -49.6242 -42.4987 20.9228 -49.6272 -42.4994 -0.07721 
-49.6272 -30.4994 -0.07765 39.3758 -46.4987 20.9102 -45.6242 -46.4987 20.9224 
39.3728 -46.4994 -0.08975 27.3728 -46.4994 -0.08804 27.3758 -46.4987 20.912 
-33.6242 -46.4987 20.9207 -33.6272 -46.4994 -0.07935 -45.6272 -46.4994 -0.07764 
-33.6242 -26.4987 20.9199 -29.6242 -30.4987 20.9195 -29.6242 -42.4987 20.9199 
23.3758 -42.4987 20.9124 23.3758 -30.4987 20.9119 27.3758 -26.4987 20.9112 
39.3758 -26.4987 20.9095 39.3758 26.5013 20.9076 27.3758 26.5013 20.9093 
23.3758 30.5013 20.9097 23.3758 42.5013 20.9093 -29.6242 42.5013 20.9169 
-29.6242 30.5013 20.9173 -33.6242 26.5013 20.918 -45.6242 26.5013 20.9197 
-45.6242 -26.4987 20.9216 52.3669 30.4991 -41.0944 52.3669 46.4991 -41.095 
43.3669 55.4991 -41.094 27.3669 55.4991 -41.0917 27.3669 46.4991 -41.0914 
23.3669 42.4991 -41.0907 23.3669 41.6991 -41.0906 -3.13306 41.6991 -41.0869 
-3.13306 31.2991 -41.0865 23.3669 31.2991 -41.0903 23.3669 30.4991 -41.0902 
27.3669 26.4991 -41.0907 28.1669 26.4991 -41.0908 28.1669 -0.00092 -41.0898 
38.5669 -0.00092 -41.0913 38.5669 26.4991 -41.0923 43.3669 30.4991 -41.0931 
39.3669 26.4991 -41.0924 39.3695 46.4997 -23.0931 27.3695 46.4997 -23.0914 
27.3695 55.4997 -23.0917 43.3695 55.4997 -23.094 52.3695 46.4997 -23.095 
52.3695 30.4997 -23.0944 43.3695 42.4997 -23.0935 43.3695 30.4997 -23.0931 
27.3728 46.5006 -0.09141 23.3728 42.5006 -0.09069 23.3728 30.5006 -0.09026 
27.3728 26.5006 -0.09068 39.3728 26.5006 -0.09239 43.3728 30.5006 -0.09311 
39.3728 46.5006 -0.09312 43.3728 42.5006 -0.09354 23.3687 31.2995 -29.0903 
23.3687 41.6995 -29.0907 -3.13135 31.2995 -29.0865 -3.13135 41.6995 -29.0869 
38.5686 26.4995 -29.0923 28.1686 26.4995 -29.0908 38.5686 -0.00049 -29.0913 
28.1686 -0.00049 -29.0898 23.3728 42.5006 -0.09069 23.3728 30.5006 -0.09026 
27.3728 26.5006 -0.09068 39.3728 26.5006 -0.09239 -44.833 26.4991 -41.0804 
-44.833 -0.00092 -41.0794 -34.433 -0.00092 -41.0809 -34.433 26.4991 -41.0819 
-33.633 26.4991 -41.082 -29.6331 30.4991 -41.0827 -29.6331 31.2991 -41.0827 
-3.13306 31.2991 -41.0865 -3.13306 41.6991 -41.0869 -29.6331 41.6991 -41.0831 
-29.6331 42.4991 -41.0831 -33.633 46.4991 -41.0827 -33.633 55.4991 -41.083 
-49.633 55.4991 -41.0807 -58.633 46.4991 -41.0791 -58.633 30.4991 -41.0786 
-49.633 30.4991 -41.0798 -45.633 26.4991 -41.0803 -58.6305 30.4997 -23.0786 
-58.6305 46.4997 -23.0791 -49.6305 55.4997 -23.0807 -33.6305 55.4997 -23.083 
-33.6305 46.4997 -23.0827 -45.6305 46.4997 -23.081 -49.6305 42.4997 -23.0803 
-49.6305 30.4997 -23.0798 -33.6272 46.5006 -0.08271 -29.6272 42.5006 -0.08314 
-29.6272 30.5006 -0.08271 -33.6272 26.5006 -0.08199 -45.6272 26.5006 -0.08028 
-49.6272 30.5006 -0.07986 -45.6272 46.5006 -0.081 -49.6272 42.5006 -0.08029 
-29.6313 31.2995 -29.0827 -29.6313 41.6995 -29.0831 -3.13135 41.6995 -29.0869 
-3.13135 31.2995 -29.0865 -44.8313 26.4995 -29.0804 -34.4313 26.4995 -29.0819 
-34.4313 -0.00049 -29.0809 -44.8313 -0.00049 -29.0794 -29.6272 42.5006 -0.08314 
-29.6272 30.5006 -0.08271 -33.6272 26.5006 -0.08199 -45.6272 26.5006 -0.08028 
38.5669 -26.5009 -41.0904 38.5669 -0.00092 -41.0913 28.1669 -0.00092 -41.0898 
28.1669 -26.5009 -41.0889 27.3669 -26.5009 -41.0887 23.3669 -30.5009 -41.088 
23.3669 -31.3009 -41.088 -3.13306 -31.3009 -41.0842 -3.13306 -41.7009 -41.0839 
23.3669 -41.7009 -41.0876 23.3669 -42.5009 -41.0876 27.3669 -46.5009 -41.088 
27.3669 -55.5009 -41.0877 43.3669 -55.5009 -41.09 52.3669 -46.5009 -41.0916 
52.3669 -30.5009 -41.0922 43.3669 -30.5009 -41.0909 39.3669 -26.5009 -41.0905 
52.3695 -30.5003 -23.0922 52.3695 -46.5003 -23.0916 43.3695 -55.5003 -23.09 
27.3695 -55.5003 -23.0877 27.3695 -46.5003 -23.088 39.3695 -46.5003 -23.0897 
43.3695 -42.5003 -23.0905 43.3695 -30.5003 -23.0909 27.3728 -46.4994 -0.08804 
23.3728 -42.4994 -0.08762 23.3728 -30.4994 -0.08805 27.3728 -26.4994 -0.08876 
39.3728 -26.4994 -0.09047 43.3728 -30.4994 -0.0909 39.3728 -46.4994 -0.08975 
43.3728 -42.4994 -0.09046 23.3687 -31.3005 -29.088 23.3687 -41.7005 -29.0876 
-3.13135 -41.7005 -29.0839 -3.13135 -31.3005 -29.0842 38.5686 -26.5005 -29.0903 
28.1686 -26.5005 -29.0889 28.1686 -0.00049 -29.0898 38.5686 -0.00049 -29.0913 
23.3728 -42.4994 -0.08762 23.3728 -30.4994 -0.08805 27.3728 -26.4994 -0.08876 
39.3728 -26.4994 -0.09047 -45.6272 -26.4994 -0.07836 -33.6272 -26.4994 -0.08007 
-29.6272 -30.4994 -0.0805 -29.6272 -42.4994 -0.08006 -33.633 -26.5009 -41.0801 
-45.633 -26.5009 -41.0784 -44.833 -26.5009 -41.0785 -44.8313 -26.5005 -29.0785 
-34.4313 -26.5005 -29.08 -34.433 -26.5009 -41.0799 -29.6331 -42.5009 -41.0801 
-29.6331 -30.5009 -41.0805 -29.6331 -31.3009 -41.0805 -29.6313 -31.3005 -29.0805 
-29.6313 -41.7005 -29.0801 -29.6331 -41.7009 -41.0801 -49.6305 -42.5003 -23.0772 
-49.6305 -30.5003 -23.0776 -45.6305 -46.5003 -23.0776 -33.6305 -46.5003 -23.0793 
-44.8313 -0.00049 -29.0794 -34.4313 -0.00049 -29.0809 -34.433 -0.00092 -41.0809 
-44.833 -0.00092 -41.0794 -3.13135 -31.3005 -29.0842 -3.13135 -41.7005 -29.0839 
-3.13306 -31.3009 -41.0842 -3.13306 -41.7009 -41.0839 -33.6305 -55.5003 -23.079 
-49.6305 -55.5003 -23.0767 -58.6305 -46.5003 -23.0758 -58.6305 -30.5003 -23.0764 
-58.633 -30.5009 -41.0764 -49.633 -30.5009 -41.0776 -58.633 -46.5009 -41.0758 
-33.633 -46.5009 -41.0793 -33.633 -55.5009 -41.079 -49.633 -55.5009 -41.0767 
-47.1536 -46.1939 30.4226 -48.4513 -45.3268 30.4227 -49.3184 -44.029 30.4228 
-49.6229 -39.4983 30.4227 -49.6229 -36.4983 30.4226 -49.6229 -33.4983 30.4225 
-49.6229 -27.4483 30.4222 -49.6229 -24.3983 30.4221 -49.6229 -21.3483 30.422 
-49.6229 -18.2983 30.4219 -49.6229 -15.2483 30.4218 -49.6229 -12.1983 30.4217 
-49.6229 -9.14833 30.4216 -49.6229 -6.09833 30.4215 -49.6229 -3.04833 30.4214 
-49.6229 0.00167 30.4212 -49.6229 3.05167 30.4211 -49.6229 6.10167 30.421 
-49.6229 9.15167 30.4209 -49.6229 12.2017 30.4208 -49.6229 15.2517 30.4207 
-49.6229 18.3017 30.4206 -49.6229 21.3517 30.4205 -49.6229 24.4017 30.4204 
-49.6229 27.4517 30.4202 -49.6229 33.5017 30.42 -49.6229 36.5017 30.4199 
-49.6229 39.5017 30.4198 -49.3184 44.0324 30.4196 -48.4513 45.3301 30.4194 
-47.1536 46.1972 30.4192 -42.6229 46.5017 30.4186 -39.6229 46.5017 30.4181 
-36.6229 46.5017 30.4177 -30.5729 46.5017 30.4168 -27.5229 46.5017 30.4164 
-24.4729 46.5017 30.416 -21.4229 46.5017 30.4156 -18.3729 46.5017 30.4151 
-15.3229 46.5017 30.4147 -12.2729 46.5017 30.4142 -9.22287 46.5017 30.4138 
-6.17287 46.5017 30.4134 -3.12287 46.5017 30.4129 -0.07287 46.5017 30.4125 
2.97713 46.5017 30.4121 6.02713 46.5017 30.4116 9.07712 46.5017 30.4112 
12.1271 46.5017 30.4108 15.1771 46.5017 30.4103 18.2271 46.5017 30.4099 
21.2771 46.5017 30.4095 24.3271 46.5017 30.409 30.3771 46.5017 30.4082 
33.3771 46.5017 30.4077 36.3771 46.5017 30.4073 40.9078 46.1972 30.4067 
42.2055 45.3301 30.4065 43.0726 44.0324 30.4065 43.3771 39.5017 30.4066 
43.3771 36.5017 30.4067 43.3771 33.5017 30.4068 43.3771 27.4517 30.407 
43.3771 24.4017 30.4071 43.3771 21.3517 30.4072 43.3771 18.3017 30.4073 
43.3771 15.2517 30.4074 43.3771 12.2017 30.4076 43.3771 9.15167 30.4077 
43.3771 6.10167 30.4078 43.3771 3.05167 30.4079 43.3771 0.00167 30.408 
43.3771 -3.04833 30.4081 43.3771 -6.09833 30.4082 43.3771 -9.14833 30.4083 
43.3771 -12.1983 30.4084 43.3771 -15.2483 30.4086 43.3771 -18.2983 30.4087 
43.3771 -21.3483 30.4088 43.3771 -24.3983 30.4089 43.3771 -27.4483 30.409 
43.3771 -33.4983 30.4092 43.3771 -36.4983 30.4093 43.3771 -39.4983 30.4094 
43.0726 -44.029 30.4096 42.2055 -45.3268 30.4098 40.9078 -46.1939 30.41 
36.3771 -46.4983 30.4107 33.3771 -46.4983 30.4111 30.3771 -46.4983 30.4115 
24.3271 -46.4983 30.4124 21.2771 -46.4983 30.4128 18.2271 -46.4983 30.4133 
15.1771 -46.4983 30.4137 12.1271 -46.4983 30.4141 9.07713 -46.4983 30.4146 
6.02713 -46.4983 30.415 2.97713 -46.4983 30.4154 -0.07287 -46.4983 30.4159 
-3.12287 -46.4983 30.4163 -6.17287 -46.4983 30.4167 -9.22287 -46.4983 30.4172 
-12.2729 -46.4983 30.4176 -15.3229 -46.4983 30.418 -18.3729 -46.4983 30.4185 
-21.4229 -46.4983 30.4189 -24.4729 -46.4983 30.4193 -27.5229 -46.4983 30.4198 
-30.5729 -46.4983 30.4202 -36.6229 -46.4983 30.4211 -39.6229 -46.4983 30.4215 
-42.6229 -46.4983 30.4219 27.3762 46.5014 24.0753 27.3767 46.5015 27.2419 
27.3732 46.5007 2.90859 27.3736 46.5008 5.90859 27.3741 46.5009 8.90859 
27.3745 46.501 11.9086 27.3749 46.5011 14.9086 27.3753 46.5012 17.9086 
30.3728 46.5006 -0.09183 33.3728 46.5006 -0.09226 36.3728 46.5006 -0.09269 
39.3732 46.5007 2.90688 39.3736 46.5008 5.90688 39.3741 46.5009 8.90688 
39.3745 46.501 11.9069 39.3749 46.5011 14.9069 39.3753 46.5012 17.9069 
39.3762 46.5014 24.0735 39.3767 46.5015 27.2402 -33.6238 46.5014 24.084 
-33.6233 46.5015 27.2506 24.3258 46.5013 20.909 21.2758 46.5013 20.9095 
18.2258 46.5013 20.9099 15.1758 46.5013 20.9103 12.1258 46.5013 20.9108 
9.07577 46.5013 20.9112 6.02577 46.5013 20.9116 2.97577 46.5013 20.9121 
-0.07422 46.5013 20.9125 -3.12422 46.5013 20.9129 -6.17422 46.5013 20.9134 
-9.22422 46.5013 20.9138 -12.2742 46.5013 20.9142 -15.3242 46.5013 20.9147 
[...]
CELL_DATA 12638
SCALARS cell_scalars float
LOOKUP_TABLE default
-9432.5 -9049.5 -9547.1 -9533.6 -8993.3 -9493.2 -9566.7 -8977.9 -9243 
-8915.3 -9274.1 -8872.7 -9246.2 -8856 -9240.8 -8903.5 -9310.5 -8887 
-9323.2 -8903.3 -9354.1 -8924.1 -9387.1 -9026.3 -9410.2 -8995 -9426.5 
-9056.1 -9498.6 -9155.5 -9601.4 -9207.3 -9596.3 -9247.6 -9568.7 -9231.5 
-9572.6 -9194.3 -9597.4 -9267 -9672.8 -9267.9 -9664.3 -9209.4 -9587.8 
-9238.2 -9548.5 -9187.5 -9518.8 -9122.7 -9438.8 -9090 -9448.4 -9084.2 
-9459.9 -9088.4 -9408.3 -9044 -9397.8 -9059.3 -9393.4 -9066.1 -9420.5 
-9188.6 -9646.6 -9543.4 -9153.2 -9629.7 -9523.5 -9148.5 -9612.6 -9069.4 
-9500.3 -9117.1 -9549 -9107.5 -9504.2 -9128.6 -9437.8 -9045.8 -9403.8 
-9054.5 -9385.3 -9034.7 -9350.6 -8963.2 -9452 -8975.2 -9383.1 -8956.2 
-9382.8 -9008.9 -9356.1 -9023.3 -9399.7 -8968.6 -9413.5 -9018.6 -9407.2 
-8981.4 -9376.3 -9013.2 -9378.1 -9008.3 -9373.2 -9036.1 -9371.3 -9004 
-9401.3 -9047.9 -9398.6 -9050.5 -9405.5 -9045.1 -9431.9 -9090.5 -9488.6 
-9085 -9442.2 -9083.6 -9486.9 -9080 -9488.4 -9072.3 -9519.6 -9088.8 
-9491 -9619.3 -9089.4 -9538.2 -9650.1 -9259.1 -9479.3 -9158.6 -9454.6 
-9038.2 -9391.2 -9032.4 -9470.2 -9107.1 -9460.8 -9023.8 -9427.4 -9092.1 
-9527.4 -9149.2 -9543.8 -9166.7 -9503.1 -9236.2 -9622.3 -9225.1 -9612 
-9236.5 -9617.2 -9286.7 -9618.4 -9285.7 -9631.4 -9221.4 -9597.4 -9234.2 
-9609.2 -9168.7 -9605.8 -9099.2 -9490.8 -9060.9 -9468.6 -9005.4 -9428 
-8972.5 -9399.5 -8969.8 -9400.8 -8981.8 -9428 -8891.3 -9367.4 -8876.4 
-9307.8 -8909.5 -9381.3 -8905.4 -9220.9 -8872.2 -9253.8 -8999.1 -9553.5 
-9533.9 -9088.6 -9382 -9451.5 -9031.3 -9527.3 -8869.8 -9395.3 -8840.6 
-9361.3 -8835.5 -9423.8 -8907.5 -9337.5 -8807.1 -9328.1 -8837.8 -9370.1 
-8801.8 -9340.9 -8750.4 -9417.9 -8736.8 -9397.4 -8777.6 -9363.2 -8806.8 
-9382.9 -8826.5 -9387.8 -8770.6 -9423.6 -8784.9 -9409 -8743 -9393 
-8814.9 -9370.1 -8809.5 -9363 -8827.9 -9375.6 -8786 -9401.6 -8826.9 
-9397.3 -8818.9 -9359.2 -8804.9 -9300.9 -8818.4 -9390.4 -8799.4 -9333.8 
-8742.2 -9388 -8806 -9320.9 -8878 -8828.8 -8690.3 -8678.4 -8758.7 
-8699.6 -8682.5 -8867.6 -8909.4 -8936.8 -8899.8 -8849.5 -8931.6 -8939.4 
-8984 -8905.3 -8876.5 -8666.3 -8664.8 -8694.9 -8588.3 -8585.3 -8586.7 
-8572.3 -8661.4 -8632.1 -8685 -8661.1 -8692.9 -8646.6 -8662.2 -8712.1 
-8599 -8706.2 -8695.1 -8700.8 -8651.3 -8747.9 -8680.5 -8775.4 -8709.5 
-8900.9 -8724 -8897.6 -8821.3 -8943.8 -8832.5 -9011.1 -8854.1 -8952 
-8878.7 -8920.9 -8834.4 -8869.5 -8852.2 -8868.2 -8862.8 -8841.2 -8846 
-8816.4 -8862.5 -8835.4 -8816.2 -8854.1 -8801.6 -8828.9 -8860.4 -8929.8 
-8813.4 -8619.8 -8624.7 -8750.1 -8684.4 -8660 -8585.6 -8628.3 -8682.4 
-8545.5 -8675.2 -8653.3 -8708.4 -8679.2 -8662 -8777.9 -8655.9 -8644.6 
-8645.3 -8750.5 -8683.3 -8625.8 -8619.6 -8732.2 -8691.5 -8631.3 -8678 
-8659.5 -8668.8 -8676.1 -8663.1 -8700.5 -8679.9 -8719.6 -8691.1 -8671.1 
-8687.2 -8710.4 -8713.7 -8674.8 -8705.5 -8727.6 -8711.1 -8728.4 -8695.3 
-8717.6 -8737.1 -8690.5 -8613.1 -8714.2 -8562.1 -8637.2 -8572.9 -8625.8 
-8911.9 -8823.7 -8804.6 -8849.7 -8872.4 -8813.9 -8830 -8833.6 -8954.4 
-8816 -8924.9 -8967.6 -8945.9 -8909.5 -8901.5 -8967.1 -8947.3 -8884.3 
-8910.4 -8972.6 -8967.2 -8899.6 -8942 -8901.5 -8920.8 -8913.1 -8961.3 
-8952.7 -8952.1 -8931.5 -8952.4 -8913.3 -8931.5 -8925.9 -8930.2 -8917.5 
-8939.7 -8920.6 -8948.3 -8941.3 -8915.8 -8905.1 -8862.6 -8866.5 -8865.5 
-8740.1 -8793 -8754 -8850.6 -8842.6 -8908.5 -8765.7 -8907.1 -8885.7 
-8847.5 -8783.4 -8826.2 -8758.5 -8812.9 -8747.3 -8835.5 -8805.2 -8787 
-8793.2 -8835.4 -8816.7 -8896.5 -8810.3 -8877.4 -8812.2 -8840.1 -8806.7 
-8908.1 -8765.7 -8991.1 -8868.7 -8884.8 -8806.5 -8911.3 -8792.9 -8921.6 
-8778.3 -8800.8 -8735.5 -8748.9 -8724.3 -8719.6 -8703.2 -8693.1 -8657.6 
-8646.8 -8626.6 -8663.8 -8610.2 -8620 -8692.7 -8653.6 -8701.8 -8680.8 
-8685.5 -8731.3 -8790.1 -8686.2 -8574.2 -8570.8 -8648.6 -8798.6 -8635.4 
-8872.8 -8777.6 -8594.6 -8869.7 -8677.4 -8575.6 -8613.5 -8656.7 -8632.8 
-8793.2 -8855.5 -8857 -8846.9 -8695.6 -8649.5 -8810.3 -8791.5 -8673.7 
-8633.9 -8751.5 -8693.4 -8830.7 -8825.7 -8762.8 -8709.7 -8816.5 -8713 
-8699.4 -8749.9 -8709.7 -8657.3 -8673.5 -8713.2 -8735.5 -8730.7 -8656.4 
-8755.8 -8711.3 -8674.2 -8682.4 -8691.5 -8725.3 -8744.2 -8756.4 -8797.8 
-8783.6 -8791.6 -8838.3 -8802.9 -8793.7 -8830.1 -8841.2 -8835 -8869.5 
-8850.3 -8870.2 -8864.3 -8964.8 -8904.4 -8861.4 -8915.6 -8813.2 -8856.6 
-8810.6 -8794.5 -8828.7 -8821.4 -8855 -8831.4 -8829.6 -8844.3 -8834.7 
-8836.2 -8865.7 -8829.9 -8800.5 -8836.4 -8775.6 -8800.7 -8784.4 -8825.6 
-8746.5 -8816.4 -8761.6 -8765.2 -8756.1 -8761 -8685.7 -8704.8 -8668.6 
-8725.2 -8691 -8744 -8715.9 -8786 -8730.6 -8695.9 -8688.2 -8756.3 
-8796.7 -8737 -8706.1 -8705.9 -8639.9 -8633.8 -8637 -8660.2 -8719.1 
-8649.8 -8826.4 -8862.9 -8647.1 -8639.7 -8608.9 -8604.2 -8556.9 -8579.6 
-8762.9 -8619.1 -8493.7 -8631.2 -8673.2 -8570.1 -8666.7 -8674.8 -8703.7 
-8768.5 -8749.4 -8717.4 -8685.8 -8670.5 -8749.7 -8716.2 -8700.4 -8703.1 
-8721.9 -8731.8 -8686.6 -8701.8 -8684.6 -8724.7 -8706 -8717.3 -8700.2 
-8669.4 -8723.1 -8687.3 -8705.3 -8662.6 -8648.5 -8631.8 -8682.7 -8638.5 
-8621.8 -8628.5 -8490.4 -8516.4 -8722.6 -8613.1 -8660.8 -8652.6 -8839 
-8818.1 -8770.1 -8775.2 -8924.9 -8796.6 -8773.5 -8871.6 -8815 -8844.3 
-8830.8 -8750.8 -8830.6 -8871.8 -8881.1 -8879.3 -8908.8 -8871.7 -8865.7 
-8854 -8859.9 -8844.7 -8868.1 -8857.2 -8837.6 -8848.2 -8811.4 -8852.8 
-8823.1 -8840.3 -8853.9 -8807.7 -8856.5 -8796.1 -8843.5 -8820.7 -8757.1 
-8780.1 -8729.8 -8791.1 -8886 -8811.9 -8908.3 -8943.7 -8847 -8877.1 
-8861.8 -8830.4 -8786.5 -8787.2 -8797.1 -8631.4 -8654.1 -8631.7 -8564.9 
-8641.1 -8649 -8876.2 -8845.8 -8821.8 -8825.2 -8799.2 -8775.3 -8819.1 
-8806.6 -8833.9 -8735.3 -8826.9 -8598.7 -8655.3 -8651.4 -8668.3 -8585.7 
-8721.9 -8610.8 -8695.8 -8850.5 -8856.8 -8592 -8654 -8805.6 -8753.4 
-8603.9 -8556 -8828.2 -8862.9 -8646.4 -8654.8 -8723.4 -8696.7 -8711.9 
-8715.9 -8725.4 -8702.6 -8841 -8825.7 -8876.1 -8945.7 -8871.6 -8779.8 
-8796 -8828.6 -8835.9 -8829.2 -8847.9 -8839.4 -8839.3 -8802.8 -8864.1 
-8878.5 -8894.2 -8874.4 -8904.6 -8854.8 -8896.7 -8863.9 -8926 -8883.1 
-8851.8 -8912.3 -8742.1 -8811.5 -8812.2 -8809.6 -8857.9 -8801.2 -8817.9 
-8767 -8859.1 -8869.8 -8900.7 -8863.7 -8890.9 -8895 -8880.3 -8896.4 
-8857.2 -8833.2 -8862.9 -8866.5 -8861.9 -8836.7 -8867 -8839.1 -8833 
-8837.8 -8803.6 -8826 -8803.6 -8798.4 -8843.2 -8812.2 -8880.9 -8775.6 
-8794.9 -8908.4 -8773.8 -8806.8 -8707.3 -8677.5 -8656.7 -8636.3 -8722.6 
-8695.1 -8645.9 -8701.1 -8584.9 -8663.4 -8648.8 -8620.4 -8631.6 -8680.9 
-8730.1 -8661.6 -8535.5 -8701.1 -8701.6 -8571.5 -8678 -8605.3 -8643 
-8647.9 -8623.4 -8706.2 -8664.6 -8665.3 -8634.3 -8608.7 -8629.3 -8658 
-8653.4 -8603.2 -8556.5 -8613 -8586.5 -8583.8 -8547.6 -8564.2 -8555.1 
-8636.4 -8615.8 -8612.5 -8603.4 -8663.4 -8624.1 -8634.9 -8690.4 -8574.8 
-8650.2 -8674.1 -8547.7 -8588.9 -8816.8 -8835.3 -8862 -8749.8 -8792.2 
-8886.2 -8814.7 -8798 -8771.6 -8767.4 -8797.1 -8790.9 -8772.8 -8809 
-8810.5 -8836.6 -8775.8 -8790.1 -8773 -8826.6 -8798.4 -8807.3 -8736.7 
-8825.2 -8794.4 -8816.1 -8799.8 -8797 -8837.3 -8834.2 -8926.7 -8849.5 
-8916 -8948.2 -8841.1 -8918.3 -8824.2 -8827.8 -8786.1 -8828.8 -8859.7 
-8805 -8881.8 -8709.1 -8663.5 -8589.9 -8591.5 -8824.5 -8788.8 -8622.6 
-8633.1 -8602.1 -8817.8 -8742 -8675.6 -8644.1 -8797.8 -8853.3 -8817.5 
-8802.9 -8809.2 -8674.2 -8675.6 -8687.4 -8618.3 -8651.3 -8750.4 -8714.6 
-8718.7 -8736.1 -8736.4 -8754.4 -8743.8 -8840.1 -8760.3 -8824.5 -8618.5 
-8646.9 -8734.4 -8761.6 -8822.5 -8818.1 -8733.7 -8659.2 -8802.6 -8841.5 
-8685.9 -8647.9 -8779 -8867 -8572.1 -8626 -8735.7 -8651.7 -8807 
-8870.7 -8782.4 -8877.1 -8756.3 -8777.2 -8792 -8793.3 -8840.8 -8806.4 
-8885.9 -8841.4 -8926.4 -8916.4 -8916.1 -8909.6 -8919.6 -8846.9 -8861.8 
-8873.6 -8845.8 -8882.9 -8842.8 -8854 -8830.6 -8896.7 -8839.3 -8854.5 
-8856.4 -8799.9 -8816 -8789.6 -8706.9 -8627.5 -8719.8 -8775.5 -8632.1 
-8637.9 -8657.4 -8674.5 -8680.7 -8698.5 -8771.7 -8764.5 -8762 -8709.7 
-8688.8 -8650.4 -8612.9 -8665.3 -8597.5 -8661.4 -8574.7 -8652.2 -8608.8 
-8660.2 -8605.8 -8670.8 -8671 -8605 -8619.5 -8596.2 -8880.3 -8860.3 
-8856.5 -8888.6 -8687.8 -8793.4 -8767.1 -8767.5 -8723.7 -8718.5 -8700.3 
-8722.1 -8694.9 -8719.3 -8793.7 -8709.6 -8788.5 -8757.3 -8781.6 -8783.2 
-8809.7 -8772.2 -8766 -8766.9 -8761.8 -8769.3 -8934.3 -8859.5 -8797.1 
-8850.1 -8765.5 -8793 -8667.3 -8630.6 -8763.8 -8786.5 -8706.4 -8788.6 
-8591.3 -8695.4 -8782.1 -8666.2 -8718 -8770.5 -8702.2 -8650.7 -8786.4 
-8763.7 -8782 -8778.9 -8779.2 -8758.3 -8786.6 -8819.3 -8733.5 -8772 
-8747.4 -8675.7 -8739.4 -8677.1 -8713.4 -8670.2 -8720.5 -8700.7 -8897.7 
-8891.4 -8670 -8623.7 -8829.3 -8829.1 -8757.3 -8652.5 -8830.2 -8794.1 
-8664.9 -8618.6 -8751.2 -8818.5 -8645.6 -8652.7 -8716.4 -8763.5 -8559.3 
-8756.5 -8802 -8788.7 -8694.6 -8642.4 -8542.8 -8596.3 -8729.1 -8649.6 
-8789.2 -8788.3 -8852.3 -8772.3 -8732.8 -8614.1 -8724.3 -8693.1 -8726.6 
-8790.3 -8828.9 -8707.3 -8842.9 -8817 -8801.2 -8612.1 -8663.3 -8904 
-8793.6 -8673.5 -8712.4 -8746.2 -8674 -8733.4 -8723.7 -8729.8 -8647.5 
-8748.6 -8757.8 -8784.7 -8667.6 -8745.2 -8786 -8762 -8756.8 -8770.1 
-8736.6 -8775.6 -8756.3 -8734.3 -8767.9 -8660.8 -8623.3 -8671.8 -8628.3 
-8640.4 -8612.7 -8800.8 -8750.3 -8749.7 -8656.3 -8613.1 -8666.4 -8675.2 
-8645.2 -8813.7 -8786.7 -8749.5 -8837.2 -8911.3 -8882.5 -8888.7 -8860 
-8922.3 -8882.7 -8925 -8890.4 -8892.5 -8919.5 -8940.6 -8889.5 -8891.5 
-8889.4 -8877.5 -8894.5 -8777 -8806.6 -8786.1 -8751.2 -8742.5 -8723.2 
-8824.7 -8870.5 -8833.9 -8847.1 -8820.6 -8874 -8849.1 -8911.7 -8798.1 
-8858.6 -8812.2 -8850.6 -8750.7 -8768.7 -8878.8 -8845.1 -8860.9 -8941.2 
-8886.2 -8855.6 -8900.6 -8892.8 -8906.9 -8902.2 -8839.3 -8855.9 -8711.2 
-8758 -8705.9 -8753.1 -8708.9 -8750.6 -8697.7 -8720.9 -8715.8 -8721.5 
-8800.2 -8735.6 -8835.2 -8834.9 -8690.5 -8754.6 -8669.5 -8687.6 -8651.3 
-8624.8 -8737.2 -8596 -8751.9 -8687.1 -8899.6 -8789.2 -8954.3 -8950.4 
-8804.3 -8890.8 -8718.5 -8799.9 -8696 -8699.1 -8739.2 -8700.1 -8681.9 
-8716.2 -8760.9 -8762.1 -8862.9 -8768.3 -8860.9 -8828.9 -8879.6 -8878.2 
-8880.7 -8898.2 -8778.9 -8682.1 -8738.9 -8847.8 -8841.3 -8708.2 -8618.7 
-8626.1 -8792.6 -8828.9 -8874.4 -8674.8 -8700.3 -8725.2 -8667.9 -8711.4 
-8691.2 -8673.6 -8827 -8814.2 -8790.6 -8798 -8803.6 -8668.8 -8638.3 
-8755 -8658.1 -8753.3 -8736.3 -8737.6 -8771.2 -8656.2 -8775.5 -8720.9 
-8728.6 -8633.1 -8563.2 -8658.3 -8612.8 -8610.9 -8589.2 -8655.8 -8564.8 
-8601 -8599.3 -8674.1 -8649.1 -8715.6 -8753.9 -8693.1 -8692 -8571 
-8694.1 -8702 -8667.5 -8676.6 -8733 -8844.5 -8882.1 -8802.8 -8772.1 
-8753.8 -8839.3 -8724.8 -8734.5 -8749.8 -8787.2 -8780.8 -8678.2 -8700 
-8731.6 -8764.7 -8742.5 -8714.8 -8751.9 -8825 -8788.8 -8825.8 -8881.3 
-8870.3 -8903.3 -8907.6 -8903.4 -8823.3 -8855 -8772.3 -8787.9 -8845.9 
-8766.7 -8730.1 -8856 -8866.7 -8851.3 -8751.6 -8783.5 -8820.4 -8790.7 
-8759 -8717.5 -8750.5 -8745.5 -8805.1 -8764.8 -8820 -8816.9 -8809.8 
-8776.1 -8850.1 -8849.7 -8807.8 -8858.5 -8861.5 -8857.9 -8794.3 -8841.3 
-8801.8 -8813.5 -8973.5 -8951.6 -8811.7 -8934.9 -8755.9 -8783.1 -8665.2 
-8695.1 -8691.9 -8749.9 -8788.5 -8661.3 -8720.7 -8847.3 -8727.9 -8860.2 
-8838.9 -8759.7 -8764.8 -8822.1 -8826.8 -8817.9 -8850.2 -8819.5 -8837.4 
-8821.1 -8887.4 -8785.9 -8837.1 -8852.2 -8825.9 -8817.5 -8814.1 -8835.6 
-8836.1 -8650.6 -8686.5 -8823 -8868.7 -8702.4 -8654.1 -8725.6 -8719.2 
-8686.1 -8664.6 -8703.9 -8715.6 -8714.8 -8742.7 -8768.6 -8689.8 -8709.6 
-8802.7 -8788.7 -8830.2 -8842.6 -8817.2 -8731.2 -8663.8 -8720.2 -8762.7 
-8728.1 -8747.2 -8703.5 -8634.9 -8787.8 -8752.1 -8767.6 -8729.7 -8734.6 
-8774.2 -8716.5 -8824.5 -8674.1 -8761.4 -8699 -8771.6 -8708.1 -8705.2 
-8695.9 -8728.4 -8719.9 -8774.4 -8528.3 -8611.5 -8605 -8638.3 -8626.7 
-8613 -8842.2 -8840.2 -8828.6 -8780 -8909.7 -8870 -8887.6 -8907 
-8899 -8888.8 -8749.4 -8873.1 -8819.8 -8701.1 -8871.3 -8822.4 -8869.4 
-8874.2 -8891.7 -8937.5 -8840.6 -8890.6 -8840 -8933.4 -8887 -8926.9 
-8940.8 -8896.3 -8913.1 -8928.5 -8797.9 -8758.6 -8875.5 -8801.5 -8841.7 
-8812.1 -8918.4 -8807.3 -8930.2 -8889.5 -8914.4 -8935.4 -8743.8 -8789.6 
-8708.9 -8758.8 -8783.8 -8798.2 -8718.8 -8654.4 -8732.6 -8766.1 -8716.4 
-8741.2 -8703.9 -8710.7 -8838.6 -8725.8 -8827.5 -8906.4 -8631.1 -8701.6 
-8705.9 -8705.7 -8819.7 -8705.5 -8941 -8980.1 -8712.3 -8859.7 -8793.3 
-8722.8 -8696 -8754.6 -8765.4 -8659.4 -8696.9 -8716.8 -8728.1 -8673.5 
-8744.6 -8810.4 -8792.1 -8768.4 -8815.8 -8844.8 -8649.4 -8778.5 -8828.5 
-8677.9 -8714.2 -8719.7 -8739.6 -8679.3 -8660.6 -8708.5 -8719.4 -8809.2 
-8816.9 -8852.7 -8851.6 -8805.8 -8649.9 -8653.2 -8729.6 -8765.1 -8823.8 
-8876.6 -8853.3 -8843.2 -8858.1 -8803 -8764 -8818.8 -8728.5 -8741.6 
-8785.1 -8807.9 -8809.4 -8812.4 -8831.5 -8773.2 -8909.7 -8927.4 -8760.1 
-8910.3 -8745.8 -8803.2 -8762.3 -8732.7 -8755.6 -8730.8 -8817.8 -8745.8 
-8839.9 -8756.2 -8867.8 -8776.8 -8809.8 -8801.3 -8863.7 -8864.2 -8802 
-8828.2 -8829.2 -8853.9 -8856.9 -8845.3 -8843.7 -8833.4 -8858.7 -8773.6 
-8901.9 -8899.9 -8762.1 -8773.3 -8829.6 -8810.2 -8752.2 -8767 -8801.9 
-8795.2 -8818.2 -8863.3 -8901.9 -8890.6 -8765.8 -8728.1 -8848.2 -8771.8 
-8879.4 -8903.1 -8873.1 -8917.3 -8831.6 -8942.3 -8823.1 -8818.7 -8784.3 
-8875.9 -8871.2 -8785.3 -8890.2 -8832.2 -8887.3 -8803 -8942.1 -8918.8 
-8656.5 -8684.5 -8738.8 -8739.6 -8625.8 -8714.7 -8638 -8601.4 -8674.1 
-8644.5 -8758.5 -8674 -8761.4 -8686.1 -8798.1 -8715 -8727.8 -8747 
-8718.2 -8803.9 -8778.7 -8775.3 -8783.9 -8765.8 -8860.9 -8721.9 -8719 
-8691.6 -8741.1 -8823.4 -8808.8 -8815.1 -8879.4 -8808.3 -8874 -8786.5 
-8713 -8694.8 -8832.5 -8842.1 -8768.8 -8848.1 -8752.8 -8696.2 -8852.8 
-8790.3 -8885.4 -8900.6 -8906.8 -8885.6 -8789.5 -8874.3 -8611.7 -8722.5 
-8880.3 -8756.7 -8848.2 -8835.9 -8885 -8906.5 -8924.7 -8937.3 -8868.2 
-8871.6 -8822.5 -8894.8 -8776.3 -8804.4 -8757.7 -8805.1 -8753.8 -8832.1 
-8872.2 -8744.7 -8865.4 -8789.3 -8708.2 -8620 -8741.1 -8743.2 -8709.3 
-8679 -8725.9 -8758.1 -8841.1 -8911.2 -8756 -8709.1 -8750.3 -8741.4 
-8895.6 -8827.8 -8858.6 -8862.3 -8865.2 -8837.3 -8947.7 -8911.7 -8993.7 
-8964.3 -8848.4 -8895.4 -8912.9 -8934.6 -8810.7 -8747.4 -8710.1 -8720.8 
-8731.1 -8716.6 -8747 -8753.9 -8736.6 -8707.4 -8800.3 -8746.2 -8887 
-8912.6 -8826.5 -8918.2 -8741.4 -8751.5 -8764.3 -8741.1 -8792 -8793.7 
-8702.3 -8716.5 -8656.3 -8736.6 -8652.7 -8677.1 -8588.4 -8730.5 -8676.7 
-8697.6 -8728.4 -8636.3 -8681.6 -8707.9 -8790.3 -8739.1 -8879 -8824.7 
-8811.8 -8874.2 -8850.8 -8907.1 -8778.9 -8875.7 -8868.5 -8876.4 -8831.2 
-8856.5 -8872.6 -8819.1 -8752.7 -8711.7 -8749.3 -8701.9 -8831.5 -8925.7 
-8874.2 -8792.9 -8929.7 -8755.9 -8859.6 -8730.1 -8795.2 -8688.9 -8707.3 
-8667.8 -8726.8 -8701.7 -8774.9 -8733.1 -8800 -8726.3 -8758.6 -8697.1 
-8713.1 -8770.9 -8709.6 -8717.9 -8742.9 -8798.5 -8702.9 -8680.3 -8786.9 
-8752.1 -8668.6 -8885.7 -8870.5 -8842.9 -8932.5 -8822.5 -8838.5 -8681 
-8777 -8699 -8715.6 -8670 -8694.4 -8781.3 -8676.9 -8786.5 -8745.2 
-8897.5 -8915.8 -8849.3 -8898 -8893.2 -8893.3 -8844.5 -8874.8 -8874.5 
-8857.8 -8802.9 -8908.8 -8829.5 -8826.5 -8871.4 -8833.1 -8784.1 -8821.8 
-8834.1 -8843.8 -8740.1 -8824.6 -8791.4 -8799.9 -8776.7 -8806.8 -8820.5 
-8772.4 -8842.2 -8811.1 -8845.7 -8836.5 -8903.6 -8855.6 -8851.7 -8860.7 
-8883 -8835.5 -8857.3 -8845 -8862 -8908.2 -8816.4 -8830.4 -8847.6 
-8823 -8785.1 -8666.6 -8627.3 -8715 -8683.8 -8713.5 -8751.4 -8726.5 
-8951.4 -8845.6 -8890.1 -8710.3 -8834.8 -8851.4 -8807 -8787.5 -8871.3 
-8710.1 -8751.2 -8667.3 -8794.4 -8742.8 -8759.3 -8655.4 -8690.7 -8714.4 
-8748.3 -8739.5 -8756.7 -8704.1 -8787.1 -8770.6 -8790.2 -8785.6 -8758.9 
-8730.1 -8883.2 -8818.5 -8824.1 -8972.8 -8833.7 -8927.9 -8886.5 -8843.7 
-8876.2 -8814.4 -8887.7 -8868.5 -8883.7 -8805.5 -8875.3 -8748.9 -8790.7 
-8918 -8830.6 -8871.5 -8935.1 -8820.7 -8786 -8816.3 -8871.3 -8818.2 
-8843 -8827.8 -8871.1 -8884.5 -8840.3 -8933 -8877.2 -8895.5 -8917.5 
-8949.6 -8907.9 -8858.9 -8734.7 -8764.5 -8744.3 -8802.7 -8707.2 -8765 
-8734.6 -8736.4 -8785.3 -8689.3 -8863.1 -8664 -8837.9 -8836.2 -8861.5 
-8848.5 -8760.9 -8736.4 -8807.5 -8909.1 -8887.2 -8896.2 -8856.4 -8920.4 
-8756.7 -8797.1 -8951.9 -8847.9 -8870.4 -8939.7 -8810.2 -8887.9 -8793.8 
-8820.5 -8858.5 -8793.2 -8903 -8774 -8872 -8930.8 -8899.8 -8853.2 
-8907 -8893.8 -8910.6 -8903.2 -8898.5 -8887.8 -8895.4 -8848.2 -8950.1 
-8970.8 -8948.1 -8935.2 -8936.1 -8941 -8927.7 -8960.6 -8755.8 -8860.7 
-8893 -8844.3 -8939.2 -8879.9 -8901 -8885.9 -8857.3 -8939 -8839.5 
-8926.8 -8798.8 -8880 -8842.4 -8873.3 -8838 -8874.6 -8735.3 -8840 
-8710.4 -8775.4 -8779.7 -8736.6 -8778.8 -8740 -8823.4 -8850.3 -8848.4 
-8820.2 -8882.4 -8908.8 -8872.8 -8850.9 -8887.8 -8858 -8950.7 -8851.7 
-8901.8 -8876.4 -8867.8 -8872.3 -8802.4 -8823.6 -8832.8 -8849.4 -8853.7 
-8838.1 -8929.9 -8844.7 -8857.6 -8931.4 -8804.3 -8794.3 -8815.4 -8877.4 
-8881.3 -8887.4 -8885.3 -8809.1 -8856.2 -8832.6 -8932.2 -8939.2 -8918 
-8930 -8813.1 -8869.8 -8930.3 -8828.5 -8918.3 -8920 -8923.6 -8897.5 
-8926.3 -8900.6 -8955.7 -8876.1 -8738.5 -8781.6 -8842.2 -8757 -8791.2 
-8849.8 -8852.4 -8803.4 -8775.9 -8824.9 -8765.5 -8745.6 -8865.4 -8871.5 
-8821.6 -8792 -8752 -8794.4 -8920.8 -8868.2 -8972.2 -8693.9 -8740.8 
-8739.8 -8807 -8829 -8846.5 -8821.8 -8889.4 -8789.2 -8815.8 -8872.1 
-8860.4 -8785.2 -8703.9 -8901.6 -8960 -8865.5 -8855.8 -8784.8 -8827.7 
-8855 -8823.1 -8925 -8900.3 -8894.5 -8905.8 -8883.8 -8857 -8812.9 
-8864.9 -8805.8 -8822.8 -8842.9 -8788.7 -8711.5 -8727.4 -8752.3 -8819 
-8803.3 -8821.9 -8852.4 -8870.1 -8896.6 -8855.4 -8843.5 -8815.9 -8818 
-8787.4 -8798 -8805.5 -8812.8 -8718.4 -8852.4 -8822.5 -8852.8 -8876.4 
-8847.2 -8821.4 -8794 -8878.3 -8818.9 -8848.4 -8829 -8907.6 -8820.6 
-8814.5 -8808.3 -8868.4 -8858.1 -8792.3 -8775.3 -8663.7 -8841.9 -8841 
-8768.3 -8755.9 -8840.2 -8809.1 -8783.6 -8782.5 -8794.6 -8784.6 -8769.3 
-8916.4 -8814.8 -8796.3 -8763.7 -8729.5 -8854.1 -8850 -8845.9 -8799.1 
-8925.9 -8788.1 -8826.7 -8831.5 -8833.7 -8815.8 -8816 -8809 -8804.8 
-8846.4 -8903.7 -8783.5 -8776 -8784.3 -8823.7 -8786.7 -8858.4 -8785.9 
-8804.4 -8795.7 -8862.4 -8777.7 -8806.8 -8794.4 -8818.5 -8798.1 -8742.9 
-8812 -8767.5 -8802.7 -8891 43741 49979 52945 53745 20106 
26267 29410 29709 517.56 5400.2 8137.2 7598.4 -9331.4 -7788.1 
-6299 -6804.2 -10535 -10361 -10265 -10332 -10708 -10641 -10628 
-10687 -10790 -10752 -10757 -10819 -10841 -10814 -10821 -10869 
-10836 -10813 -10816 -10837 -10581 -10558 -10561 -10585 -10595 
-10877 -11165 -10598 -10919 -11645 -10634 -10942 -11733 -10646 
-10952 -11725 -10645 -10957 -11628 -10681 -10961 -11605 -10673 
-10967 -11575 -10661 -10948 -11552 -10649 -10936 -11512 -10654 
-10930 -11471 -10643 -10924 -11437 -10651 -10919 -11460 -10659 
-10913 -11439 -10631 -10906 -11435 -10613 -10899 -11428 -10596 
-10891 -11442 -10586 -10883 -11426 -10587 -10869 -11442 -10577 
-10844 -11406 -10553 -10801 -11024 964.78 -3085.1 -5764.3 -7748.9 
-8917.3 -9510.6 -9804.3 -10078 -10204 -10213 -10282 -10389 -10505 
-10463 -10476 -10523 -10632 -10599 -10594 -10608 -10704 -10679 
-10667 -10667 -10757 -10725 -10713 -10708 -10799 -10763 -10751 
-10751 -10767 -10749 -10740 -10744 -10524 -10530 -10495 -10485 
-10494 -10800 -10806 -10666 -10883 -10885 -10822 -11108 -11199 
-10748 -10989 -11025 -10593 -10777 -10762 -10603 -10792 -10752 
-10472 -10801 -10733 -10554 -10710 -10691 11650 11572 12613 
15457 -7200 -7105.2 -6779.7 -5775.1 -9749.6 -9603.5 -9567.3 -9641.5 
-10242 -10154 -10132 -10180 -10481 -10438 -10428 -10478 -10631 
-10610 -10604 -10632 -10738 -10714 -10709 -10729 -10803 -10769 
-10767 -10784 -10789 -10775 -10777 -10789 -10528 -10534 -10540 
-10533 -9973.8 -9895.4 -9885.9 -9935.7 -10128 -10064 -10059 -10100 
-10277 -10218 -10234 -10276 -10429 -10395 -10406 -10430 -10509 
-10490 -10502 -10513 -10573 -10554 -10562 -10569 -10615 -10603 
-10604 -10606 -10645 -10655 -10659 -10671 -10704 -10733 -10750 
-10769 -10645 -10639 -10638 -10626 -10529 -10819 -10962 -10533 
-10862 -11218 -10541 -10885 -11231 -10538 -10892 -11254 -10554 
-10894 -11266 -10542 -10895 -11267 -10553 -10896 -11263 -10551 
-10897 -11257 -10556 -10896 -11264 -10548 -10896 -11272 -10549 
-10897 -11267 -10547 -10898 -11271 -10550 -10898 -11262 -10550 