# vtk DataFile Version 4.2
vtk output
ASCII
DATASET UNSTRUCTURED_GRID
POINTS 8741 float
-50.3084 -42.4827 31.1877 -50.3086 -30.4827 31.1831 -50.31 30.5173 31.1599 
-50.3103 42.5173 31.1553 -46.3174 46.5173 30.9168 -34.3385 46.5173 30.2061 
26.5544 46.5173 26.5929 38.5333 46.5173 25.8822 42.5264 42.5173 25.6468 
42.5267 30.5173 25.6513 42.5281 -30.4827 25.6746 42.5283 -42.4827 25.6792 
38.5354 -46.4827 25.9177 26.5565 -46.4827 26.6284 -46.3153 -46.4827 30.9523 
-34.3364 -46.4827 30.2416 25.9917 46.5136 17.1096 24.7479 46.5056 -3.85351 
36.7268 46.5056 -4.56428 37.9706 46.5136 16.3988 -34.9012 46.5136 20.7227 
-46.8801 46.5136 21.4335 -48.124 46.5056 0.47039 -36.145 46.5056 -0.24039 
41.9637 42.5136 16.1634 -50.873 42.5136 21.672 40.7199 42.5056 -4.79968 
40.7201 30.5056 -4.79511 41.964 30.5137 16.168 -50.8727 30.5137 21.6765 
-52.1166 30.5056 0.71342 -52.1169 42.5056 0.70884 41.9654 -30.4863 16.1913 
-50.8713 -30.4863 21.6998 40.7215 -30.4944 -4.77183 40.7218 -42.4944 -4.76725 
41.9656 -42.4863 16.1959 -50.8711 -42.4863 21.7044 -52.1149 -42.4944 0.74127 
-52.1152 -30.4944 0.7367 37.9728 -46.4863 16.4343 -46.878 -46.4863 21.469 
36.7289 -46.4944 -4.5288 24.75 -46.4944 -3.81802 25.9938 -46.4863 17.1451 
-34.8991 -46.4863 20.7582 -36.1429 -46.4944 -0.2049 -48.1219 -46.4944 0.50588 
-34.8995 -26.4863 20.7506 -30.9065 -30.4863 20.5152 -30.9062 -42.4863 20.5198 
22.0008 -42.4863 17.3805 22.0005 -30.4863 17.3759 25.9934 -26.4863 17.1375 
37.9723 -26.4863 16.4267 37.9711 26.5137 16.4065 25.9922 26.5137 17.1173 
21.9991 30.5137 17.3526 21.9988 42.5136 17.3481 -30.9081 42.5136 20.4873 
-30.9078 30.5137 20.4919 -34.9007 26.5137 20.7304 -46.8797 26.5137 21.4412 
-46.8784 -26.4863 21.4614 47.2758 30.49 -46.2562 47.2755 46.4899 -46.2623 
38.2911 55.4899 -45.7327 22.3192 55.4899 -44.7849 22.3194 46.4899 -44.7815 
18.3265 42.4899 -44.5431 18.3265 41.6899 -44.5428 -8.12697 41.6899 -42.9731 
-8.12673 31.2899 -42.9692 18.3267 31.2899 -44.5388 18.3267 30.49 -44.5385 
22.3198 26.49 -44.7739 23.1184 26.49 -44.8213 23.119 -0.01005 -44.8111 
33.5008 -0.01005 -45.4272 33.5002 26.49 -45.4373 38.2916 30.49 -45.7231 
34.2988 26.49 -45.4847 35.3645 46.4968 -27.5239 23.3855 46.4968 -26.8131 
23.3853 55.4968 -26.8165 39.3572 55.4968 -27.7642 48.3416 46.4968 -28.2939 
48.342 30.4968 -28.2878 39.3575 42.4968 -27.7593 39.3578 30.4968 -27.7547 
24.7479 46.5056 -3.85351 20.755 42.5056 -3.61505 20.7552 30.5056 -3.61048 
24.7483 26.5056 -3.84588 36.7272 26.5056 -4.55665 40.7201 30.5056 -4.79511 
36.7268 46.5056 -4.56428 40.7199 42.5056 -4.79968 19.0375 31.2945 -32.5598 
19.0373 41.6945 -32.5638 -7.41596 31.2945 -30.9902 -7.41619 41.6945 -30.9942 
34.2109 26.4945 -33.4583 23.8292 26.4945 -32.8423 34.2115 -0.00546 -33.4482 
23.8298 -0.00546 -32.8322 20.755 42.5056 -3.61505 20.7552 30.5056 -3.61048 
24.7483 26.5056 -3.84588 36.7272 26.5056 -4.55665 -49.7534 26.49 -40.4974 
-49.7528 -0.01005 -40.4873 -39.3711 -0.01005 -41.1033 -39.3717 26.49 -41.1134 
-38.5731 26.49 -41.1608 -34.5802 30.49 -41.3992 -34.5802 31.2899 -41.3995 
-8.12673 31.2899 -42.9692 -8.12697 41.6899 -42.9731 -34.5804 41.6899 -41.4035 
-34.5805 42.4899 -41.4038 -38.5735 46.4899 -41.1684 -38.5737 55.4899 -41.1718 
-54.5456 55.4899 -40.2241 -63.5296 46.4899 -39.6876 -63.5293 30.49 -39.6815 
-54.5451 30.49 -40.2146 -50.552 26.49 -40.45 -62.4631 30.4968 -21.7131 
-62.4635 46.4968 -21.7192 -53.4795 55.4968 -22.2557 -37.5076 55.4968 -23.2034 
-37.5074 46.4968 -23.2 -49.4863 46.4968 -22.4892 -53.4792 42.4968 -22.2508 
-53.4789 30.4968 -22.2462 -36.145 46.5056 -0.24039 -32.152 42.5056 -0.47579 
-32.1517 30.5056 -0.47121 -36.1446 26.5056 -0.23276 -48.1235 26.5056 0.47802 
-52.1166 30.5056 0.71342 -48.124 46.5056 0.47039 -52.1169 42.5056 0.70884 
-33.8694 31.2945 -29.4206 -33.8697 41.6945 -29.4245 -7.41619 41.6945 -30.9942 
-7.41596 31.2945 -30.9902 -49.0426 26.4945 -28.5184 -38.6609 26.4945 -29.1344 
-38.6603 -0.00546 -29.1243 -49.042 -0.00546 -28.5083 -32.152 42.5056 -0.47579 
-32.1517 30.5056 -0.47121 -36.1446 26.5056 -0.23276 -48.1235 26.5056 0.47802 
33.5014 -26.51 -45.417 33.5008 -0.01005 -45.4272 23.119 -0.01005 -44.8111 
23.1196 -26.51 -44.801 22.321 -26.51 -44.7537 18.3281 -30.51 -44.5152 
18.3281 -31.31 -44.5149 -8.12532 -31.31 -42.9453 -8.12508 -41.71 -42.9413 
18.3284 -41.71 -44.5109 18.3284 -42.51 -44.5106 22.3215 -46.51 -44.746 
22.3217 -55.51 -44.7426 38.2936 -55.51 -45.6903 47.2776 -46.51 -46.2268 
47.2772 -30.51 -46.2329 38.293 -30.51 -45.6998 34.2999 -26.51 -45.4644 
48.3434 -30.5032 -28.2645 48.3438 -46.5032 -28.2584 39.3597 -55.5032 -27.7219 
23.3878 -55.5032 -26.7742 23.3876 -46.5032 -26.7776 35.3666 -46.5032 -27.4884 
39.3595 -42.5032 -27.7269 39.3592 -30.5032 -27.7314 24.75 -46.4944 -3.81802 
20.7569 -42.4944 -3.58262 20.7566 -30.4944 -3.5872 24.7495 -26.4944 -3.82565 
36.7284 -26.4944 -4.53643 40.7215 -30.4944 -4.77183 36.7289 -46.4944 -4.5288 
40.7218 -42.4944 -4.76725 19.0389 -31.3055 -32.536 19.0392 -41.7054 -32.532 
-7.4143 -41.7054 -30.9624 -7.41454 -31.3055 -30.9663 34.2121 -26.5054 -33.4381 
23.8304 -26.5054 -32.8221 23.8298 -0.00546 -32.8322 34.2115 -0.00546 -33.4482 
20.7569 -42.4944 -3.58262 20.7566 -30.4944 -3.5872 24.7495 -26.4944 -3.82565 
36.7284 -26.4944 -4.53643 -48.1223 -26.4944 0.49824 -36.1434 -26.4944 -0.21253 
-32.1503 -30.4944 -0.44793 -32.15 -42.4944 -0.44335 -38.5719 -26.51 -41.1405 
-50.5508 -26.51 -40.4298 -49.7522 -26.51 -40.4771 -49.0414 -26.5054 -28.4982 
-38.6597 -26.5054 -29.1142 -39.3705 -26.51 -41.0932 -34.5785 -42.51 -41.3714 
-34.5788 -30.51 -41.3759 -34.5788 -31.31 -41.3756 -33.868 -31.3055 -29.3967 
-33.8678 -41.7054 -29.3927 -34.5785 -41.71 -41.3717 -53.4772 -42.5032 -22.2183 
-53.4775 -30.5032 -22.2229 -49.4842 -46.5032 -22.4537 -37.5052 -46.5032 -23.1645 
-49.042 -0.00546 -28.5083 -38.6603 -0.00546 -29.1243 -39.3711 -0.01005 -41.1033 
-49.7528 -0.01005 -40.4873 -7.41454 -31.3055 -30.9663 -7.4143 -41.7054 -30.9624 
-8.12532 -31.31 -42.9453 -8.12508 -41.71 -42.9413 -37.5051 -55.5032 -23.1611 
-53.477 -55.5032 -22.2134 -62.4614 -46.5032 -21.6837 -62.4617 -30.5032 -21.6898 
-63.5279 -30.51 -39.6582 -54.5437 -30.51 -40.1913 -63.5275 -46.51 -39.6521 
-38.5714 -46.51 -41.1329 -38.5712 -55.51 -41.1295 -54.5431 -55.51 -40.1818 
-47.8433 -46.1782 31.0429 -49.1388 -45.3111 31.1194 -50.0044 -44.0134 31.1703 
-50.3084 -39.4827 31.1866 -50.3085 -36.4827 31.1854 -50.3086 -33.4827 31.1843 
-50.3087 -27.4327 31.182 -50.3088 -24.3827 31.1808 -50.3088 -21.3327 31.1796 
-50.3089 -18.2827 31.1785 -50.309 -15.2327 31.1773 -50.3091 -12.1827 31.1762 
-50.3091 -9.13271 31.175 -50.3092 -6.08271 31.1738 -50.3093 -3.03272 31.1727 
-50.3093 0.01728 31.1715 -50.3094 3.06728 31.1703 -50.3095 6.11728 31.1692 
-50.3095 9.16728 31.168 -50.3096 12.2173 31.1668 -50.3097 15.2673 31.1657 
-50.3097 18.3173 31.1645 -50.3098 21.3673 31.1634 -50.3099 24.4173 31.1622 
-50.31 27.4673 31.161 -50.3101 33.5173 31.1587 -50.3102 36.5173 31.1576 
-50.3102 39.5173 31.1564 -50.0064 44.048 31.1367 -49.1408 45.3457 31.0848 
-47.8454 46.2128 31.0076 -43.3227 46.5173 30.7391 -40.3279 46.5173 30.5614 
-37.3332 46.5173 30.3838 -31.2938 46.5173 30.0254 -28.2492 46.5173 29.8447 
-25.2045 46.5173 29.6641 -22.1599 46.5173 29.4834 -19.1152 46.5173 29.3028 
-16.0706 46.5173 29.1221 -13.026 46.5173 28.9415 -9.98132 46.5173 28.7608 
-6.93667 46.5173 28.5802 -3.89203 46.5173 28.3995 -0.84738 46.5173 28.2188 
2.19726 46.5173 28.0382 5.24191 46.5173 27.8575 8.28655 46.5173 27.6769 
11.3312 46.5173 27.4962 14.3758 46.5173 27.3156 17.4205 46.5173 27.1349 
20.4651 46.5173 26.9543 23.5098 46.5173 26.7736 29.5492 46.5173 26.4153 
32.5439 46.5173 26.2376 35.5386 46.5173 26.0599 40.0614 46.2128 25.7916 
41.3568 45.3457 25.7151 42.2224 44.048 25.6642 42.5265 39.5173 25.6479 
42.5266 36.5173 25.649 42.5266 33.5173 25.6502 42.5268 27.4673 25.6525 
42.5268 24.4173 25.6537 42.5269 21.3673 25.6548 42.527 18.3173 25.656 
42.527 15.2673 25.6572 42.5271 12.2173 25.6583 42.5272 9.16728 25.6595 
42.5272 6.11728 25.6607 42.5273 3.06728 25.6618 42.5274 0.01728 25.663 
42.5275 -3.03272 25.6641 42.5275 -6.08271 25.6653 42.5276 -9.13271 25.6665 
42.5277 -12.1827 25.6676 42.5277 -15.2327 25.6688 42.5278 -18.2827 25.67 
42.5279 -21.3327 25.6711 42.5279 -24.3827 25.6723 42.528 -27.4327 25.6735 
42.5281 -33.4827 25.6758 42.5282 -36.4827 25.6769 42.5283 -39.4827 25.678 
42.2244 -44.0134 25.6978 41.3589 -45.3111 25.7497 40.0635 -46.1782 25.8269 
35.5407 -46.4827 26.0953 32.546 -46.4827 26.273 29.5513 -46.4827 26.4507 
23.5119 -46.4827 26.8091 20.4672 -46.4827 26.9897 17.4226 -46.4827 27.1704 
14.3779 -46.4827 27.351 11.3333 -46.4827 27.5317 8.28865 -46.4827 27.7124 
5.24401 -46.4827 27.893 2.19937 -46.4827 28.0737 -0.84528 -46.4827 28.2543 
-3.88992 -46.4827 28.435 -6.93457 -46.4827 28.6156 -9.97921 -46.4827 28.7963 
-13.0239 -46.4827 28.9769 -16.0685 -46.4827 29.1576 -19.1131 -46.4827 29.3383 
-22.1578 -46.4827 29.5189 -25.2024 -46.4827 29.6996 -28.2471 -46.4827 29.8802 
-31.2917 -46.4827 30.0609 -37.3311 -46.4827 30.4192 -40.3258 -46.4827 30.5969 
-43.3206 -46.4827 30.7746 26.1793 46.5149 20.2707 26.3668 46.5161 23.4318 
24.9256 46.5068 -0.85877 25.1033 46.5079 2.13596 25.2809 46.5091 5.13069 
25.4586 46.5102 8.12542 25.6363 46.5113 11.1202 25.814 46.5125 14.1149 
27.7426 46.5056 -4.0312 30.7373 46.5056 -4.2089 33.7321 46.5056 -4.38659 
36.9045 46.5068 -1.56955 37.0822 46.5079 1.42518 37.2599 46.5091 4.41991 
37.4376 46.5102 7.41465 37.6153 46.5113 10.4094 37.793 46.5125 13.4041 
38.1582 46.5149 19.5599 38.3458 46.5161 22.7211 -34.7136 46.5149 23.8839 
-34.526 46.5161 27.045 22.9471 46.5136 17.2903 19.9024 46.5136 17.4709 
16.8578 46.5136 17.6516 13.8131 46.5136 17.8323 10.7685 46.5136 18.0129 
7.72385 46.5136 18.1936 4.67921 46.5136 18.3742 1.63456 46.5136 18.5549 
-1.41008 46.5136 18.7355 -4.45473 46.5136 18.9162 -7.49937 46.5136 19.0968 
-10.544 46.5136 19.2775 -13.5887 46.5136 19.4582 -16.6333 46.5136 19.6388 
-19.6779 46.5136 19.8195 -22.7226 46.5136 20.0001 -25.7672 46.5136 20.1808 
[...]
CELL_DATA 12638
SCALARS cell_scalars float
LOOKUP_TABLE default
-8339 -7860.7 -8183.2 -8078.3 -7855.4 -8231.2 -8134.3 -7251 -7299.8 
-6549.6 -6835.8 -6204.5 -6854.2 -6925.7 -7620 -7475.9 -8035.5 -7790 
-8026 -7451.1 -7596.7 -6857.9 -7161.7 -6306 -6664.7 -6436.3 -7101.1 
-7145 -7695.3 -7588.9 -8106.1 -7727.6 -7821.8 -7163.5 -7290.2 -6531.1 
-6847.7 -6030.3 -6520.8 -6605.8 -7283 -7268.9 -7872.6 -7653.6 -8026.1 
-7466.3 -7579.3 -6841.7 -6979.4 -6230.7 -6610.3 -6051.1 -6625.2 -6768.3 
-7422.6 -7310.3 -7790.1 -7617.4 -7821.2 -7200.6 -7367.7 -6640.6 -6857.3 
-6372.2 -7053.9 -6666.6 -5822.7 -6035.6 -6614.6 -6284.6 -6975.2 -6133.4 
-6871.5 -5994.4 -6740.1 -5967.6 -6819.5 -6035.7 -6803.5 -5994.6 -6771.5 
-6037.8 -6758.8 -5958.5 -6733.7 -5929.3 -6763.7 -5931.9 -6704.2 -5910.9 
-6729 -5965.9 -6776.3 -5937.6 -6715.5 -5898.8 -6754.8 -5966.9 -6754.8 
-5950.5 -6743.4 -6031.8 -6766.6 -6006.9 -6783.5 -5965.5 -6729 -5969.2 
-6865.3 -6024.6 -6827.1 -6051.4 -6859.5 -6126.1 -6842.3 -6152 -6872.4 
-6143 -6757.9 -6142.5 -6776 -6175.2 -6771.4 -6110.6 -6927.7 -6297.7 
-6885.3 -6454.4 -5833.5 -6466.2 -6695.5 -6216.9 -6926.7 -6507.1 -7241.9 
-7130.7 -7753.6 -7592.9 -7882.7 -7320.8 -7517.6 -6856 -6827.4 -6050.6 
-6500.4 -6233 -6997.8 -6762.3 -7480.6 -7371.1 -7956.4 -7685 -7928.6 
-7355.2 -7411.4 -6727.7 -6620.7 -6092.9 -6755.4 -6406.7 -7169.7 -7031.8 
-7730.1 -7617.7 -8113.4 -7654.9 -7837.9 -7247.3 -7230.8 -6554.3 -6639.2 
-6217.1 -6843.6 -6705.4 -7460 -7349.5 -7960.2 -7803.6 -8116 -7533.8 
-7685.8 -7083.5 -7047.5 -6284.1 -6785.4 -6554.2 -7188.2 -7098.1 -7985.3 
-8126.3 -7763.4 -8257.6 -8118.4 -7618.6 -7971.6 -7513 -7930.9 -7441.9 
-7914.5 -7421 -7888.6 -7391.3 -7892.6 -7407.7 -7907.1 -7401.8 -7879 
-7389.5 -7904.6 -7413.9 -7905.5 -7403.1 -7893 -7411.3 -7915.1 -7408 
-7929.8 -7411.6 -7911.1 -7427.4 -7926.7 -7431.3 -7907.8 -7424.7 -7913.7 
-7432.9 -7921.9 -7435.2 -7939.6 -7435.7 -7923.6 -7448.3 -7938.6 -7440.8 
-7930.4 -7435.5 -7930.2 -7459.3 -7944.7 -7457.7 -7956.4 -7473.6 -7928.1 
-7461.4 -7956.9 -7491.4 -7950.9 -7574.6 -7450.9 -7061.2 -7069.4 -6725.7 
-6914.6 -6778 -5793.8 -5754.2 -5872.1 -5726.3 -5746.3 -5811.5 -5590.7 
-5656.6 -6216.7 -5926 -6206.6 -6412.7 -6089.9 -6122 -6794.9 -6554.9 
-7231.1 -7071.2 -7517.8 -7399.3 -7061.4 -7304.6 -6508.7 -6744.2 -6044.4 
-6225.2 -6256.9 -6016.6 -6965 -6583.7 -7256.2 -7096.3 -7382.6 -7385.7 
-6797.8 -7084.5 -6203.7 -6466.8 -5936.3 -6052.3 -6465.7 -6061.2 -7066.9 
-6763.3 -7319.2 -7127.1 -7109.4 -7343.3 -6535.2 -6774.5 -5995 -6197.5 
-5815.5 -5763.6 -6612.8 -6300.7 -7033 -6891.3 -7306.8 -7205.3 -6753.7 
-7050.8 -7185.3 -6841.7 -7231.9 -6848 -6729.2 -6821.3 -6639.4 -6830.7 
-6624.7 -6847.7 -6600.3 -6832.8 -6674.8 -6810.8 -6617.9 -6805.5 -6619.2 
-6810.4 -6579.1 -6798.6 -6626 -6816.5 -6623.2 -6817.4 -6623.4 -6822.1 
-6631.5 -6835.8 -6630.2 -6849.9 -6626 -6842.6 -6616.6 -6869.7 -6649.8 
-6851.8 -6672.6 -6858.9 -6680 -6878.5 -6694.1 -6879.8 -6678.4 -6891.5 
-6719 -6869.8 -6694.6 -6914 -6697.5 -6915.5 -6706.7 -6919 -6685 
-5648.5 -5775.1 -5713.4 -5760.4 -5701 -5772.4 -5831.1 -5824 -5749.5 
-5882.2 -5702.2 -5755.6 -5664.1 -5791.2 -5672 -5716.2 -5670.9 -5739.4 
-5687.6 -5749.2 -5636.3 -5775.3 -5635.9 -5746.1 -5666.8 -5773.3 -5584.5 
-5742.9 -5700.2 -5774.7 -5622.8 -5736 -5625.1 -5716.9 -5664.8 -5724.2 
-5712.8 -5726.5 -5732.7 -5738.7 -5815.6 -5838.1 -5855.5 -5800.3 -5772.6 
-5832.8 -5769.3 -5817.1 -5838 -5775.3 -5719.6 -5779.1 -6258.3 -6006.8 
-6927.1 -6572.3 -7305.5 -7172.6 -6992.2 -7078.1 -6537.2 -6748.6 -5733.1 
-6055.9 -6010.2 -5834.7 -6610.7 -6306 -7214.6 -6913.8 -7265.4 -7351.9 
-6982.5 -7098.5 -6323.6 -6687.8 -5899.2 -5940.5 -6292.9 -6019.1 -6895.1 
-6560.5 -7455.4 -7186.7 -7220.9 -7359.1 -6843 -7061.9 -6160.9 -6489.8 
-6054.4 -6025.5 -6613.5 -6312.1 -7175.2 -6861.2 -7507.7 -7400.2 -7275.1 
-7357.8 -6756.6 -7047.4 -6098.9 -6335.8 -6322.7 -6123.5 -5920.2 -6457.4 
-5686.7 -5883 -6511.5 -6412.7 -7066.3 -6434.3 -6306.1 -5925.3 -6108.6 
-5933.1 -6033.2 -6532.5 -6277.6 -6659.8 -6242.2 -7108.9 -6834.2 -6737.1 
-6891.2 -7122.8 -6855.9 -7076 -7226.9 -7416 -7233.8 -7222 -7464.9 
-6686.4 -6981.7 -6149 -6412.9 -6020 -5995.9 -6598.4 -6277.8 -7100 
-6918 -7391.3 -7254.8 -7031.2 -7295.6 -6420.2 -6708.7 -5949.6 -6144 
-6122 -5860.9 -6785 -6513.2 -7146 -7040.9 -7273.7 -7335.8 -6710.6 
-7036.3 -6113 -6383.7 -5829.4 -5907 -6297.8 -6075 -6863.7 -6630.3 
-7168 -7001 -6743.9 -6950.2 -6125.2 -6447.1 -5792.2 -5706.5 -6240.4 
-5974.1 -6861.5 -6505.8 -7356.5 -7138 -7118.8 -7268.5 -6696.2 -6944.1 
-5863.6 -6283.5 -6036.7 -5849.7 -6552.6 -6239.1 -7133.1 -6829.5 -7358.9 
-7348.9 -7062.1 -7203.1 -6496.5 -6839.6 -5941.7 -6217.3 -6251.4 -5999.3 
-6771.5 -6495.9 -7351.6 -7054.9 -7343.4 -7462.8 -6904.3 -7155.9 -6563.2 
-6745.5 -6996.5 -7205.4 -6124.4 -6183 -6294.8 -6236.7 -6310.7 -6206.2 
-6293.8 -6244.7 -6310.5 -6142.1 -6330.4 -6188.1 -6372.8 -6239.6 -6321.5 
-6209.5 -6329.2 -6237.2 -6359.9 -6251.3 -6329.3 -6258.5 -6370.9 -6271.7 
-6355 -6267.3 -6365.1 -6279.8 -6359.4 -6254.4 -6376.3 -6297.8 -6386.4 
-6263.7 -6379.3 -6256.3 -6410.7 -6232.1 -6396.3 -6253 -6399.8 -6241 
-6387.4 -6229.7 -6320.5 -6217.3 -6364.3 -6202.7 -6406.4 -6262 -5959.6 
-6061.1 -6012.6 -6099.7 -5988.6 -6122.7 -6032.7 -6187.1 -6090.4 -6176.4 
-6113.2 -6301.2 -6144.8 -6310.2 -6094.9 -6282.8 -6111.4 -6265.9 -6093.8 
-6288 -6135.1 -6311.6 -6135.4 -6305.3 -6142.8 -6298.4 -6134.8 -6281.5 
-6143.3 -6276.9 -6120 -6293.8 -6112.7 -6281.4 -6124.7 -6251.5 -6055.1 
-6211.4 -6012.6 -6155.4 -5983 -6125.9 -5924.7 -6041.2 -6009.4 -6130.7 
-5998.4 -6089.7 -5960 -6088.7 -6308.2 -6025.9 -6687.3 -6755.2 -6522.8 
-6150.1 -6314.3 -6089.6 -6037.3 -6334.9 -6754.8 -6488.8 -6853 -6573.5 
-6389.9 -6598.5 -7235.9 -7159 -6162.3 -6081.2 -6063.6 -6112.3 -6782.2 
-6637.8 -7132.6 -7050.1 -6963 -7097.7 -6063.9 -5977.9 -6452.9 -6611.2 
-7482.4 -7374.8 -6526.2 -6772.8 -6258.3 -6393 -6973.4 -7286.7 -6416 
-6702.4 -5955 -6163.6 -6351.6 -5950.8 -6978.8 -6693.8 -7310.5 -7178 
-7295.4 -7443.7 -6661.6 -6998.8 -6075.2 -6371.7 -5829.5 -5883.7 -6580.3 
-6167.5 -7082.5 -6834.1 -7364.4 -7196.4 -6989.5 -7285.1 -6364.6 -6672.3 
-5916.6 -6119.3 -5868.2 -5913.7 -6630.9 -6285.6 -7028.4 -6844.2 -7250.7 
-7166.3 -5748.8 -6182.6 -5931.8 -5718 -6476.5 -6197.7 -7118.4 -6806.9 
-7319.6 -7341.1 -7007.4 -7171.8 -6427.1 -6776 -5765.8 -6031.3 -6177.1 
-5972.5 -6793.7 -6457.4 -7404.6 -7104.7 -7263.1 -7433.4 -6894.1 -7105.4 
-6224.7 -6606.7 -5925 -5724.7 -6513.2 -6241.8 -7094.2 -6820 -7480.8 
-7382.7 -7161.1 -7310 -6668.7 -6970.2 -6081 -6439.9 -5939.8 -5959.2 
-6154.8 -6267.1 -5994.9 -6081.4 -6013.4 -6167.6 -6038.4 -6150.8 -6107.8 
-6071.1 -6087.7 -6131.3 -6126.9 -6217.8 -6069 -6129.6 -6100.2 -6158.8 
-6064.1 -6089.2 -6014.7 -6127.8 -5976.8 -6174.6 -5991.1 -6087.3 -5933.7 
-6042.2 -5931.2 -5987.2 -5939.9 -5969.9 -5978 -6003.5 -6094.3 -6058.3 
-6028.6 -5911.5 -5924.5 -5942.9 -6496.9 -6604.6 -6518.8 -6705.5 -6543.3 
-6721.4 -6584.6 -6729.7 -6618.9 -6763.6 -6628 -6779.9 -6593.6 -6785.2 
-6553.6 -6763.2 -6549.4 -6745.2 -6540.1 -6722.7 -6540.1 -6734.5 -6525.1 
-6692.9 -6542.3 -6689.8 -6512.2 -6694.2 -6500.5 -6680.7 -6497.4 -6688.3 
-6468 -6661.1 -6499.6 -6673.4 -6443.4 -6666.5 -6372.5 -6564.7 -6343.5 
-6546.8 -6360.9 -6535.3 -6417 -6272.8 -6126.4 -6293.1 -6477.2 -6062.5 
-6085.4 -5945.2 -6820.6 -7078.4 -6435.6 -6193.7 -6886.1 -7099.6 -7179.6 
-6929.4 -6906.5 -6602.3 -6379.8 -6227.5 -7059.2 -6841.7 -7442.5 -7284.8 
-7249 -7471.5 -7056.8 -7231.7 -6660.3 -6957.8 -6045.2 -6463.1 -6952.4 
-6804.2 -6827.7 -7034.5 -7169.2 -7263.6 -6142.3 -6344.4 -6907.5 -7032.9 
-7310.3 -7148.7 -6797.4 -7003.7 -6276.5 -6447.4 -6708.1 -7004.3 -5792 
-5854.2 -6983.1 -7086.1 -7044.5 -7148.5 -7089.3 -7219.4 -7103.8 -7264 
-7059.9 -7277.6 -7072.7 -7205.9 -7076.2 -7223.5 -7068 -7172.6 -7084.1 
-7231.3 -7105.3 -7210.2 -7103.7 -7265 -7100.5 -7236.1 -7090.8 -7239.3 
-7078.3 -7253.2 -7096 -7256.2 -6353.7 -6536.8 -6295.1 -6505.7 -6269.5 
-6456.9 -6279.3 -6465.1 -6295.2 -6488 -6408.4 -6494.2 -6548.5 -6653.2 
-6509 -6693.6 -6474 -6649.1 -6499.7 -6692.2 -6472.5 -6627.8 -6512.9 
-6734.8 -6546.9 -6727.4 -6545 -6675.7 -6478.6 -6768.7 -6300.4 -6642.1 
-5867.6 -6096.9 -6161.1 -5856 -6752.8 -6402.9 -7329 -7057 -7141.4 
-7303.7 -6703.4 -6946.7 -6081.9 -6391.6 -5968.5 -5818.7 -6428.3 -6201.6 
-7022.5 -6717.4 -7408.9 -7331.9 -7131.5 -7250.9 -6688.1 -6903.5 -6018.9 
-6314.3 -6153.9 -5906.9 -7354.9 -7450.7 -6772.3 -7078.5 -6285 -6476.6 
-5942.8 -6072.6 -6456.1 -6030 -7030.2 -6766 -7401.1 -7169.1 -7131.9 
-7432.8 -6499.8 -6815.2 -5977 -6243.7 -6051.9 -5858.8 -6737.6 -6390.7 
-7115.2 -6917.8 -7310.8 -7226.2 -6870.8 -7178.5 -6262.2 -6594.2 -7104.4 
-7252.9 -6536 -6678.6 -7080.7 -7245.9 -6407.4 -6701.7 -7029.9 -7189.7 
-6473.2 -6574.1 -6950.4 -7126.8 -6273 -6493.1 -6385.6 -6001.7 -6461.2 
-7083.3 -7180.9 -7254.4 -6880 -6814.8 -6720.2 -6932 -7108.3 -6852.9 
-7186.3 -7235.2 -7062.8 -7256.7 -7301.4 -7136.7 -7409.9 -7430.5 -7134.5 
-6870.2 -7008 -6366.7 -6743.9 -5827.8 -6128.5 -6875.8 -6935.5 -7272.6 
-7222.7 -6959.8 -7013 -6957.4 -7072.6 -6978.6 -7075.1 -7005.4 -7058.2 
-7001.7 -7124 -7003.5 -7075.4 -6936.1 -7062.5 -6846.9 -6989.5 -6910.8 
-7007.5 -6842.5 -6984.2 -6885.4 -7013.1 -6855.9 -6972.5 -6958.9 -7074.2 
-6933.8 -7063.6 -6940.9 -7168.4 -6861.2 -6961.9 -6896.2 -7089.6 -6897.1 
-7025.3 -7271.9 -7199.5 -7251.8 -7193.5 -7286.2 -7143.3 -7232.4 -7129.7 
-7287.7 -7108.4 -7246.5 -7130.2 -7260 -7171.1 -7305.5 -7143.9 -7266 
-7151 -7292.8 -7157.8 -7240.2 -7197.6 -7296.5 -7179.7 -7313.4 -7204.6 
-7377.7 -7256.5 -7360.3 -7260.5 -7335.2 -7241.8 -7292.1 -7233.1 -7245.2 
-7197.8 -6646.8 -6940.9 -5904.9 -6250.9 -5835.3 -5780.1 -6352.2 -6096 
-6968.1 -6656.1 -7367.3 -7296.8 -7068.1 -7243.6 -6618.5 -6923.5 -5862.2 
-6163.3 -6132.3 -5883.6 -6693.9 -6382.9 -7298.7 -7005.2 -7289.2 -7449.4 
-6879.9 -7116.4 -6223.3 -6584.9 -6008.4 -5984.6 -7450 -7215.7 -7125.6 
-7357.3 -6516.5 -6824.4 -5987 -6256.9 -6184.9 -5820 -6883.3 -6611.3 
-7231.6 -7102.9 -7441.5 -7394.3 -6882.3 -7181.4 -6288 -6531.3 -6004.3 
-6061 -6238.4 -5893.6 -6905.5 -6642.1 -7289.7 -7109 -7117.6 -7356.4 
-6525.8 -6825.1 -7018.8 -7133.6 -7209.7 -6904.7 -7044.1 -7063 -6998.1 
-7162.8 -6050.1 -5735.6 -6250.8 -6152.4 -6389.8 -6988.9 -6663.3 -7257.4 
-7280.9 -7454.2 -6968.6 -6950.8 -6677.3 -6072.4 -6385 -7314.8 -7360 
-7276.7 -7401.8 -7204.7 -7347 -7245.5 -7333 -7189.9 -7360.3 -7302 
-7395.1 -7331.5 -7409.5 -7353.3 -7415.7 -7317.4 -7436.8 -7310.3 -7441.7 
-7312 -7408.2 -7284.3 -7373.2 -7195.4 -7343.7 -7233.8 -7307.9 -7269.5 
-7293.5 -7190.7 -7338 -7256.2 -7298.5 -6964 -6838.2 -6935.8 -6851.1 
-6914.4 -6826 -6915.8 -6867.3 -6980.9 -6880.4 -6995.5 -6845.3 -6975 
-6884.2 -7000.4 -6875.2 -7027.6 -6924.9 -7082.1 -6891.4 -7032.4 -6951.2 
-7016.9 -6921.3 -7012.9 -6861.4 -6996.4 -6900.2 -6972.8 -6888.3 -7013.3 
-6901 -6970 -6896.1 -6305.1 -6626.8 -5888.3 -6081.1 -6142.8 -5901.4 
-6718.2 -6415.4 -7331.5 -7029.8 -7185.1 -7346.2 -6828.7 -7017.8 -6248.8 
-6533 -5865.4 -5877.5 -6365.6 -6100.5 -6959.6 -6617.7 -7425.1 -7234.2 
-7152.1 -7326.6 -6711.4 -7008.3 -5958.7 -6462.9 -7358 -7487.4 -7389 
-6805.1 -7087.8 -6255.1 -6509 -5978.7 -6077.8 -6471.2 -6020.2 -7071.6 
-6774.7 -7395 -7190.8 -7110.2 -7376.4 -6500.9 -6795.5 -5932.8 -6214.2 
-6179.6 -5821.2 -6736.2 -6423.5 -7115.2 -6982 -7384.7 -7282.1 -6852.4 
-7183.9 -7244.8 -7357.3 -6926.8 -6717.3 -7111.5 -7385.2 -7480 -7376.9 
-7404.5 -7482 -7108.2 -7505 -7420.4 -6617.1 -6378.3 -7480.4 -7478.6 
-5885.8 -5803.3 -6245 -6024.9 -6545.5 -7477.2 -7509.7 -7526.3 -7377.4 
-7498 -7454.3 -7554.8 -7485.2 -7464.9 -7425.2 -7517.4 -7414 -7524.4 
-7447.6 -7553.9 -7480.5 -7525.2 -7435.2 -7523.5 -7449.5 -7498.5 -7419.6 
-5922.8 -6105.1 -6605.1 -6336.8 -7488.7 -7377.9 -7475.7 -7376.8 -7513.8 
-7365.5 -6033 -6402.4 -6609 -6386.9 -6672.7 -6463.8 -6606.9 -6519.1 
-6700.5 -6506.4 -6682.8 -6572.8 -6595.2 -6475.9 -6538.5 -6322.8 -6542.7 
-6313.1 -6533.3 -6369.2 -6564.1 -6281.6 -6578.7 -6435.7 -6640.3 -6490.9 
-6670 -6422.5 -6605.2 -6433.3 -6583.5 -6411.4 -6570.6 -6324.5 -5809.7 
-5853.5 -6338.8 -6120.4 -6960.7 -6647.4 -7367.6 -7250.1 -7035.2 -7182.6 
-6484.3 -6855.3 -5847.6 -6178.5 -6158.5 -5981.6 -6630 -6389.9 -7290.5 
-7002.6 -7294.6 -7438.5 -6920.6 -7107.5 -6339.7 -6609.3 -6518.3 -6855.2 
-6084.8 -6269.5 -6156.7 -5851.9 -6810.9 -6525.8 -7141.3 -7037.7 -7423 
-7335.5 -6882.2 -7188.5 -6294.9 -6600.2 -5914.8 -6052.5 -6253 -5886.8 
-6880.3 -6571.6 -7219.9 -7068.6 -7237.6 -7374.7 -7373.7 -6827.7 -6432.5 
-7106 -6835.8 -7270.3 -7042.5 -7299 -7115.2 -6843.1 -7103.4 -5727.8 
-5933.8 -6008.2 -5668 -6120 -6349.3 -6563.1 -5900.2 -6049.4 -6106 
-6130.8 -5872.6 -6013 -5845.4 -6606.8 -6298.4 -6927.6 -6286.3 -6512.8 
-6180.2 -5814.5 -6238.8 -5930.7 -6031.1 -5970.1 -6026.2 -5819.6 -6066.4 
-5861.2 -6011.9 -5790 -5911.4 -5738.5 -5970.3 -5681.4 -5879.4 -5687.4 
-5852.9 -5714.6 -5812.9 -5741 -5806.2 -5855.6 -5887.8 -5849.7 -5842.4 
-5698.5 -6683.2 -6446.1 -7262.8 -6978.4 -7175.2 -7360.2 -6918.9 -7042.2 
-6325.1 -6682.3 -5873.8 -5951.6 -6327.2 -6053.8 -6953.5 -6607.9 -7423 
-7237.6 -7165.9 -7327.1 -6711.9 -7018.8 -5907 -6022.6 -6472.7 -6164.8 
-7020 -6746.5 -7364 -7199 -7193.6 -7400.3 -6541.5 -6880.1 -6033.4 
-6270 -5839.4 -5832.1 -6655.7 -6365.8 -7146.7 -6950.2 -7361.9 -7255.4 
-7196.9 -7105.9 -7181.5 -7019.8 -7132.6 -6979.5 -7122.3 -6957.6 -7147.5 
-6967.1 -7155.6 -6964.6 -7139.2 -6963.4 -7138.6 -6960.5 -7138.8 -6947.5 
-7114.2 -6926.2 -7088.8 -6910.3 -7082.4 -6940.4 -5965.6 -6479 -6728.9 
-6762.4 -6578.8 -5949.8 -5743.2 -6463.5 -6207.2 -5717.3 -5648.1 -5914 
-6037 -6211.4 -7018 -6764.6 -5754.1 -5863.2 -6182.7 -6005.6 -5828.5 
-5902.4 -7352.5 -7269.4 -6783 -6397.6 -5730.2 -5890 -6652 -6513.1 
-5887.5 -5962.7 -5898.8 -5988.4 -5799.3 -6004.4 -5732 -5866.1 -5772.2 
-5916.5 -5749.6 -5891.4 -5789.8 -5875.3 -5798.7 -5884.9 -5802.9 -5897.1 
-5863.7 -5928.6 -6386.8 -6068.2 -6075.1 -5983 -6506.8 -6234.8 -6851.3 
-7026.7 -6808.5 -6877.5 -7053.1 -7227.1 -6574.7 -6848.8 -5985 -6225.2 
-6038.8 -5925.6 -6583.5 -6237 -7190.6 -6911.2 -7386.8 -7447.8 -7074 
-7173.5 -7155.6 -6987.8 -7373 -7342.6 -6899.8 -7223.1 -6325.5 -6599.2 
-5818.4 -6081.6 -6299.6 -5708.4 -6878.8 -6529.6 -7188.4 -7024.8 -7179.1 
-6894.6 -6321.9 -6612.6 -6682.3 -6498.8 -6616.5 -6509.2 -6616.7 -6454.3 
-6589.6 -6436.7 -6598.2 -6450.4 -6558.9 -6423.9 -6575.6 -6431.1 -6568.7 
-6400.9 -6579.9 -6439.7 -6543 -6381.9 -6110 -6271.5 -6112 -6288.8 
-6129.8 -6890.7 -6659.4 -7230 -5947.9 -6120.7 -5972.5 -6664.8 -6384.6 
-7244.3 -6971.6 -7372.1 -6222.5 -6091.7 -5925.6 -5800.8 -6335.1 -6863.1 
-6481.6 -5842.6 -6082.1 -6241.3 -5963 -6484.8 -6605.2 -6471.5 -6418.6 
-6203.3 -6058.1 -6236.8 -6102 -6196.7 -6147.1 -6227.3 -6052.1 -6219.9 
-6060.6 -6221.4 -6059.2 -6267.4 -6080.5 -6155.6 -6112.9 -6103.4 -6043.3 
-6152.3 -6032.6 -7258.4 -7396.7 -6932.5 -7118.3 -6322.9 -6762.8 -5946.4 
-5899.5 -6362.5 -6056.9 -6958.2 -6658.1 -7477 -7244.2 -7113.3 -7316.4 
-6919.7 -6681.2 -7324 -7142.4 -7178.2 -7368 -6550.4 -6856 -5991.2 
-6234.3 -5871.6 -5827.7 -6559.4 -6318.6 -7068.5 -6884.5 -6177.7 -6271.6 
-6141.4 -6338.3 -6164.1 -6278.1 -6167.8 -6303.9 -6257.8 -6326.8 -6273.8 
-6393.4 -6248.7 -6371.2 -6277.5 -6410.1 -6227.9 -6435.2 -6260.3 -6412 
-6214.8 -6404.4 -6589.7 -6759.2 -7372.3 -7132.4 -6444.9 -6239.3 -6378.7 
-6979.7 -6716.7 -6017.9 -6204.1 -6177.6 -5978.4 -6045.4 -5978.5 -5823.6 
-7368 -7241.2 -7202.7 -5834.7 -6004.5 -6464.4 -6734.4 -6345.4 -6989.6 
-5855.9 -5798.9 -5975.3 -6164.3 -5852.8 -6078.8 -5848.5 -6023 -5888.5 
-6012.4 -5978.1 -6144.8 -5900.4 -6083.2 -5786.7 -5901 -6068.3 -6071 
-7056.8 -7298.2 -6667.1 -6819.2 -6663.6 -6868.1 -6671.2 -6885 -6695.8 
-6878.5 -6676.1 -6890.2 -6679.3 -6858.7 -6699.9 -6867.8 -6734.5 -6869.3 
-6776.9 -6962 -6795.8 -6971.3 -6727.5 -6887.4 -5983.1 -6302.6 -5958 
-5840.8 -6557 -6242.9 -7160.2 -6838 -7377.9 -7395 -7153.7 -7038.5 
-6663 -7407.2 -7348.6 -6907.4 -7181.8 -6309 -6607.1 -5990.2 -6126 
-6182.7 -5907.6 -6913.8 -6460.7 -6469.2 -5956.2 -7175.2 -6697.8 -6936.3 
-7243.3 -6084.3 -5874.9 -6514.1 -6580.1 -7118.3 -7054.5 -7410.8 -7277.2 
-7171.6 -7358.9 -7303.7 -7372 -7210.6 -7359.6 -7188.8 -7305.7 -6639 
-6871 -7235.1 -7361.4 -6478.3 -6135.9 -7024 -6773.8 -7211.4 -6468.6 
-6697.2 -7238.3 -7381.8 -7082.1 -7278.8 -7349.1 -7267.5 -7375.8 -7255.5 
-7387.9 -7252.6 -7389.2 -7242.9 -7360.9 -7239.5 -7378.4 -6073.3 -6346.6 
-5849.6 -5841.5 -6637.7 -6265.2 -6283.3 -6562.3 -6269.9 -6578.8 -6449.9 
-6571.9 -6512.5 -6623.6 -6404.6 -6693.6 -6500.1 -6641.8 -6947.3 -7124.2 
-6254.7 -6628.5 -5989.8 -6094.7 -6238.7 -6043.6 -6860.7 -6524.9 -7389.3 
-7152.9 -7392 -7117.1 -7302.5 -7338.5 -6679.3 -6494.6 -6858.8 -7008.9 
-7172.4 -6869.1 -7269.6 -7146.8 -7339.8 -7222.6 -7291.3 -7202.4 -7329.9 
-7175.5 -6930.4 -7087.5 -7372.1 -7258.5 -7246.6 -7376.2 -6930 -7192.7 
-7100.3 -7374.5 -6745.2 -6963.4 -7331.2 -7257.2 -6901.6 -7042.9 -7340.7 
-7214.9 -6992.6 -7070.4 -6882.8 -7106.7 -6874.6 -6981.2 -6868.9 -7023.2 
-6831.8 -6971.4 -6062.7 -6402.2 -6025.7 -5835.3 -6532.2 -6251.8 -7147.9 
-6820.4 -6350.3 -6685.7 -5968.7 -6128.9 -6130.9 -5770.2 -7359.1 -7242.6 
-7048.2 -6937.6 -6281 -6633.8 -6924.3 -7107.3 -6981.9 -6790.9 -6953.4 
-6492.4 -7257.7 -7383.2 -6712 -6954.3 -7089.3 -6923.1 -6986.1 -7168.3 
-7345.7 -5864.7 -5931 -7229 -7236.4 -7224.2 -7337.9 -6143.2 -6426.5 
-6194.5 -6017.7 -7183.6 -7261.6 -7153.1 -7205.1 -7311 -7234.9 -7251.2 
-6795.3 -6467.6 -7391 -7408.1 -5852.8 -5958.4 -7053.9 -6856.4 -6832.6 
-6998.8 -6883.4 -7213.3 -7197.9 -7250 -7383 -7427 -6574 -6063.8 
-6486.2 -6531.7 -7068.3 -7321.1 -7289.1 -7440.2 -6782.9 -6937.6 -6499.6 
-6864.8 -7002.2 -6656.6 -7009 -6912.9 -7374.4 -7285.9 -7454 -7319.1 
-7448 -7372.2 -7424.2 -7358.6 -5926.2 -6360.4 -6009.9 -5753.6 -6431.3 
-6215.5 -6010 -6271.9 -6568 -6671.4 -7484.3 -6917.2 -6749.4 -6955.9 
-6407.4 -6225.1 -6241.9 -6019.4 -5885.3 -6378.3 -6570 -6958.3 -7132.1 
-6642.2 -6651.3 -6424.5 -6469.6 -7042 -6840.8 -7057 -6872.3 -5812.9 
-6014.7 -6153.4 -5984.8 -6945.4 -5950.4 -6642.8 -6430.4 -6499.4 -6358.9 
-6084.7 -6490.2 -6240.1 -6271.5 -5826.3 -6007.5 -5891.5 -6001.7 -5812.3 
-5791.8 -5985.1 -6002.1 -5924.9 -6497 -6031 -5553.8 -5355.5 -7832.9 
-7681.6 -7652.4 -7770.6 -8166.7 -8104.3 -8117.6 -8189.9 -8325.1 -8304.9 
-8325 -8359.1 -8422.4 -8432 -8439.6 -8453.2 -8487.2 -8500 -8505.2 
-8514.5 -8530.6 -8538.9 -8549.7 -8576.8 -8558.9 -8557.6 -8577.4 -8614.2 
-8548.4 -8552.8 -8565.9 -8594.8 -8157.6 -8139.8 -8255.7 -8346.3 -8395.3 
-8638.2 -8865.1 -8276.6 -8671.6 -9094.8 -8193.9 -8710 -9038.3 -8240.2 
-8719.4 -8938.1 -8287.8 -8733 -9043 -8391.7 -8750.1 -9134.3 -8479.4 
-8753.3 -9250 -8425 -8771.9 -9238.4 -8276.2 -8768 -9185.8 -8246.2 
-8771.7 -9046.3 -8252.4 -8775 -9002.4 -8363.8 -8770.3 -9143.4 -8470.9 
-8787.8 -9246.5 -8541.9 -8794.5 -9330.1 -8426.6 -8800.6 -9268.5 -8307.2 
-8816.3 -9229 -8274.1 -8809.9 -9117.3 -8351.4 -8815.2 -9109.6 -8451.9 
-8802.1 -9177.8 -8565 -8784.4 -8985.3 35129 38280 38750 37269 
10276 13250 13520 12432 -5517.2 -4138.1 -3872.2 -4492.1 -8328.2 
-8115.4 -8039.5 -8108.6 -8608.1 -8504.1 -8482.2 -8536.1 -8720.7 -8660.6 
-8655.7 -8703.4 -8786.1 -8741.4 -8746.6 -8775.9 -8800.5 -8785.2 -8786.5 
-8819.9 -8778.4 -8767.9 -8786.5 -8808.5 -8563.2 -8416.7 -8364.4 -8396.6 
-8263 -8507 -8563.3 -8186.1 -8564.4 -8545.7 -8275.7 -8565.7 -8579 
-8253.4 -8595.9 -8566.7 -8679.3 -8902.3 -8886.8 -8824.4 -8976.6 -8933.7 
-8853.5 -8927.8 -8905.3 -8568.9 -8862.6 -8928.1 -2628 -1912.7 -2120.5 
-3153.4 -7607.5 -7450.6 -7455 -7619.8 -8141.6 -8092.4 -8098.7 -8148.3 
-8292.3 -8281.7 -8284.5 -8293.9 -8350.5 -8335.5 -8331.8 -8341.7 -8464.2 
-8452.7 -8448.3 -8454.6 -8568.8 -8539.9 -8534.4 -8543.4 -8498.7 -8464.5 
-8461.1 -8480.3 -8481.8 -8461.6 -8452.1 -8461 -8329.1 -8321.1 -8317.3 
-8324.4 55339 56533 56561 55449 32611 34021 34090 32851 
12079 13533 13638 12433 -3406.5 -2513.7 -2436.9 -3165.2 -8336 
-8172.5 -8168 -8327.4 -8844.7 -8810 -8812.9 -8850.6 -8938.4 -8941.7 
-8943.9 -8951.9 -8930.2 -8918.4 -8919.5 -8929.2 -8849.5 -8832.1 -8831.8 
-8841.4 -8492 -8477.7 -8478.4 -8481.9 -8341.5 -8518 -8714.8 -8349.4 
-8554.4 -9057.5 -8360.6 -8577 -9124.9 -8371.5 -8585.8 -9122.4 -8378.8 
-8588.9 -9101.9 -8384.1 -8591.4 -9095 -8397 -8596.9 -9107.5 -8408.9 