# vtk DataFile Version 4.2
vtk output
ASCII
DATASET UNSTRUCTURED_GRID
POINTS 8741 float
-49.6698 -42.4797 31.6922 -49.6701 -30.4797 31.6868 -49.6716 30.5203 31.6595 
-49.6718 42.5203 31.6541 -45.6776 46.5203 31.4391 -33.6947 46.5203 30.7995 
27.2186 46.5203 27.5481 39.2015 46.5203 26.9085 43.1959 42.5203 26.6971 
43.1962 30.5203 26.7024 43.1977 -30.4797 26.7298 43.198 -42.4797 26.7352 
39.2038 -46.4797 26.9502 27.2208 -46.4797 27.5898 -45.6754 -46.4797 31.4808 
-33.6925 -46.4797 30.8412 26.7122 46.516 18.0616 25.5929 46.5066 -2.90854 
37.5759 46.5066 -3.54816 38.6952 46.516 17.422 -34.201 46.516 21.313 
-46.184 46.516 21.9526 -47.3033 46.5066 0.98247 -35.3204 46.5066 0.34285 
42.6896 42.516 17.2106 -50.1782 42.516 22.1676 41.5703 42.5066 -3.75957 
41.5705 30.5066 -3.75419 42.6899 30.516 17.216 -50.1779 30.516 22.173 
-51.2972 30.5066 1.20285 -51.2975 42.5066 1.19747 42.6913 -30.484 17.2433 
-50.1764 -30.484 22.2003 41.572 -30.4934 -3.72684 41.5723 -42.4934 -3.72146 
42.6916 -42.484 17.2487 -50.1762 -42.484 22.2057 -51.2955 -42.4934 1.23557 
-51.2958 -30.4934 1.23019 38.6974 -46.484 17.4637 -46.1818 -46.484 21.9943 
37.5781 -46.4934 -3.50646 25.5951 -46.4934 -2.86685 26.7145 -46.484 18.1033 
-34.1988 -46.484 21.3547 -35.3181 -46.4934 0.38454 -47.3011 -46.4934 1.02416 
-34.1993 -26.484 21.3457 -30.2049 -30.484 21.1343 -30.2046 -42.484 21.1397 
22.7201 -42.484 18.3147 22.7198 -30.484 18.3093 26.714 -26.484 18.0943 
38.6969 -26.484 17.4547 38.6957 26.516 17.431 26.7127 26.516 18.0706 
22.7183 30.516 18.282 22.718 42.516 18.2766 -30.2066 42.516 21.1016 
-30.2063 30.516 21.107 -34.2006 26.516 21.322 -46.1835 26.516 21.9616 
-46.1822 -26.484 21.9853 48.3724 30.4882 -45.1756 48.372 46.4882 -45.1828 
39.3846 55.4882 -44.7071 23.4073 55.4882 -43.8543 23.4076 46.4882 -43.8502 
19.4133 42.4882 -43.6352 19.4133 41.6882 -43.6349 -7.04898 41.6882 -42.2224 
-7.04873 31.2882 -42.2177 19.4136 31.2882 -43.6302 19.4136 30.4882 -43.6299 
23.408 26.4882 -43.8413 24.2069 26.4882 -43.8839 24.2075 -0.0118 -43.872 
34.5927 -0.0118 -44.4264 34.5921 26.4882 -44.4383 39.3852 30.4882 -44.6959 
35.391 26.4882 -44.4809 36.3499 46.4963 -26.5154 24.367 46.4963 -25.8758 
24.3668 55.4963 -25.8799 40.344 55.4963 -26.7327 49.3314 46.4963 -27.2084 
49.3318 30.4963 -27.2012 40.3443 42.4963 -26.7269 40.3446 30.4963 -26.7215 
25.5929 46.5066 -2.90854 21.5987 42.5066 -2.69354 21.599 30.5066 -2.68816 
25.5934 26.5066 -2.89957 37.5763 26.5066 -3.53919 41.5705 30.5066 -3.75419 
37.5759 46.5066 -3.54816 41.5703 42.5066 -3.75957 20.0532 31.2936 -31.6473 
20.053 41.6936 -31.6519 -6.40911 31.2936 -30.2348 -6.40936 41.6936 -30.2395 
35.2317 26.4936 -32.4553 24.8465 26.4936 -31.901 35.2324 -0.00642 -32.4434 
24.8471 -0.00642 -31.8891 21.5987 42.5066 -2.69354 21.599 30.5066 -2.68816 
25.5934 26.5066 -2.89957 37.5763 26.5066 -3.53919 -48.6893 26.4882 -39.9929 
-48.6887 -0.0118 -39.981 -38.3035 -0.0118 -40.5354 -38.3041 26.4882 -40.5472 
-37.5052 26.4882 -40.5899 -33.511 30.4882 -40.8049 -33.5111 31.2882 -40.8052 
-7.04873 31.2882 -42.2177 -7.04898 41.6882 -42.2224 -33.5113 41.6882 -40.8099 
-33.5113 42.4882 -40.8103 -37.5057 46.4882 -40.5989 -37.5059 55.4882 -40.6029 
-53.4832 55.4882 -39.7501 -62.4702 46.4882 -39.2663 -62.4698 30.4882 -39.2591 
-53.4826 30.4882 -39.7389 -49.4882 26.4882 -39.9503 -61.5104 30.4963 -21.2847 
-61.5108 46.4963 -21.2919 -52.5238 55.4963 -21.7757 -36.5465 55.4963 -22.6285 
-36.5463 46.4963 -22.6244 -48.5292 46.4963 -21.9848 -52.5235 42.4963 -21.7698 
-52.5232 30.4963 -21.7645 -35.3204 46.5066 0.34285 -31.326 42.5066 0.13144 
-31.3257 30.5066 0.13682 -35.3199 26.5066 0.35182 -47.3028 26.5066 0.99143 
-51.2972 30.5066 1.20285 -47.3033 46.5066 0.98247 -51.2975 42.5066 1.19747 
-32.8714 31.2936 -28.8223 -32.8717 41.6936 -28.827 -6.40936 41.6936 -30.2395 
-6.40911 31.2936 -30.2348 -48.0497 26.4936 -28.01 -37.6645 26.4936 -28.5643 
-37.6639 -0.00642 -28.5524 -48.0491 -0.00642 -27.9981 -31.326 42.5066 0.13144 
-31.3257 30.5066 0.13682 -35.3199 26.5066 0.35182 -47.3028 26.5066 0.99143 
34.5934 -26.5118 -44.4145 34.5927 -0.0118 -44.4264 24.2075 -0.0118 -43.872 
24.2082 -26.5118 -43.8602 23.4093 -26.5118 -43.8175 19.4151 -30.5118 -43.6025 
19.4151 -31.3118 -43.6022 -7.04723 -31.3118 -42.1897 -7.04698 -41.7118 -42.185 
19.4153 -41.7118 -43.5975 19.4154 -42.5118 -43.5971 23.4098 -46.5118 -43.8086 
23.41 -55.5118 -43.8045 39.3872 -55.5118 -44.6573 48.3742 -46.5118 -45.1411 
48.3739 -30.5118 -45.1483 39.3867 -30.5118 -44.6685 35.3922 -26.5118 -44.4571 
49.3333 -30.5037 -27.1738 49.3337 -46.5037 -27.1667 40.3467 -55.5037 -26.6829 
24.3694 -55.5037 -25.8301 24.3692 -46.5037 -25.8341 36.3521 -46.5037 -26.4738 
40.3464 -42.5037 -26.6888 40.3461 -30.5037 -26.6941 25.5951 -46.4934 -2.86685 
21.6007 -42.4934 -2.65543 21.6004 -30.4934 -2.66081 25.5947 -26.4934 -2.87581 
37.5776 -26.4934 -3.51543 41.572 -30.4934 -3.72684 37.5781 -46.4934 -3.50646 
41.5723 -42.4934 -3.72146 20.0547 -31.3064 -31.6192 20.055 -41.7064 -31.6146 
-6.40736 -41.7064 -30.2021 -6.40761 -31.3064 -30.2067 35.233 -26.5064 -32.4315 
24.8478 -26.5064 -31.8772 24.8471 -0.00642 -31.8891 35.2324 -0.00642 -32.4434 
21.6007 -42.4934 -2.65543 21.6004 -30.4934 -2.66081 25.5947 -26.4934 -2.87581 
37.5776 -26.4934 -3.51543 -47.3016 -26.4934 1.01519 -35.3186 -26.4934 0.37558 
-31.3242 -30.4934 0.16416 -31.3239 -42.4934 0.16954 -37.504 -26.5118 -40.5661 
-49.4869 -26.5118 -39.9265 -48.6881 -26.5118 -39.9692 -48.0484 -26.5064 -27.9862 
-37.6632 -26.5064 -28.5405 -38.3028 -26.5118 -40.5235 -33.5093 -42.5118 -40.7722 
-33.5096 -30.5118 -40.7775 -33.5095 -31.3118 -40.7772 -32.8699 -31.3064 -28.7942 
-32.8697 -41.7064 -28.7896 -33.5093 -41.7118 -40.7725 -52.5214 -42.5037 -21.7317 
-52.5217 -30.5037 -21.7371 -48.527 -46.5037 -21.9431 -36.5441 -46.5037 -22.5828 
-48.0491 -0.00642 -27.9981 -37.6639 -0.00642 -28.5524 -38.3035 -0.0118 -40.5354 
-48.6887 -0.0118 -39.981 -6.40761 -31.3064 -30.2067 -6.40736 -41.7064 -30.2021 
-7.04723 -31.3118 -42.1897 -7.04698 -41.7118 -42.185 -36.5439 -55.5037 -22.5787 
-52.5211 -55.5037 -21.7259 -61.5085 -46.5037 -21.2502 -61.5089 -30.5037 -21.2574 
-62.4683 -30.5118 -39.2318 -53.4811 -30.5118 -39.7115 -62.468 -46.5118 -39.2246 
-37.5035 -46.5118 -40.5572 -37.5033 -55.5118 -40.5531 -53.4805 -55.5118 -39.7003 
-47.2039 -46.1752 31.5623 -48.4998 -45.3081 31.631 -49.3657 -44.0104 31.6767 
-49.6699 -39.4797 31.6909 -49.6699 -36.4797 31.6895 -49.67 -33.4797 31.6882 
-49.6702 -27.4297 31.6855 -49.6702 -24.3797 31.6841 -49.6703 -21.3297 31.6827 
-49.6704 -18.2797 31.6814 -49.6704 -15.2297 31.68 -49.6705 -12.1797 31.6786 
-49.6706 -9.1297 31.6773 -49.6707 -6.0797 31.6759 -49.6707 -3.0297 31.6745 
-49.6708 0.0203 31.6732 -49.6709 3.07029 31.6718 -49.671 6.12029 31.6704 
-49.671 9.17029 31.6691 -49.6711 12.2203 31.6677 -49.6712 15.2703 31.6663 
-49.6713 18.3203 31.665 -49.6713 21.3703 31.6636 -49.6714 24.4203 31.6622 
-49.6715 27.4703 31.6609 -49.6716 33.5203 31.6581 -49.6717 36.5203 31.6568 
-49.6718 39.5203 31.6555 -49.3678 44.051 31.6372 -48.502 45.3487 31.5904 
-47.2062 46.2158 31.5208 -42.6819 46.5203 31.2792 -39.6861 46.5203 31.1193 
-36.6904 46.5203 30.9594 -30.649 46.5203 30.6369 -27.6033 46.5203 30.4743 
-24.5577 46.5203 30.3118 -21.512 46.5203 30.1492 -18.4664 46.5203 29.9866 
-15.4207 46.5203 29.8241 -12.375 46.5203 29.6615 -9.32937 46.5203 29.4989 
-6.2837 46.5203 29.3364 -3.23804 46.5203 29.1738 -0.19237 46.5203 29.0112 
2.85329 46.5203 28.8487 5.89895 46.5203 28.6861 8.94462 46.5203 28.5235 
11.9903 46.5203 28.361 15.0359 46.5203 28.1984 18.0816 46.5203 28.0358 
21.1273 46.5203 27.8732 24.1729 46.5203 27.7107 30.2143 46.5203 27.3882 
33.2101 46.5203 27.2283 36.2058 46.5203 27.0684 40.7301 46.2158 26.827 
42.026 45.3487 26.7582 42.8919 44.051 26.7126 43.196 39.5203 26.6984 
43.1961 36.5203 26.6998 43.1962 33.5203 26.7011 43.1963 27.4703 26.7038 
43.1964 24.4203 26.7052 43.1965 21.3703 26.7066 43.1965 18.3203 26.7079 
43.1966 15.2703 26.7093 43.1967 12.2203 26.7106 43.1968 9.17029 26.712 
43.1968 6.12029 26.7134 43.1969 3.07029 26.7148 43.197 0.0203 26.7161 
43.197 -3.0297 26.7175 43.1971 -6.0797 26.7189 43.1972 -9.1297 26.7202 
43.1973 -12.1797 26.7216 43.1973 -15.2297 26.723 43.1974 -18.2797 26.7243 
43.1975 -21.3297 26.7257 43.1976 -24.3797 26.7271 43.1976 -27.4297 26.7284 
43.1978 -33.4797 26.7311 43.1978 -36.4797 26.7325 43.1979 -39.4797 26.7338 
42.894 -44.0104 26.7521 42.0281 -45.3081 26.7989 40.7323 -46.1752 26.8685 
36.208 -46.4797 27.1101 33.2123 -46.4797 27.27 30.2166 -46.4797 27.4299 
24.1752 -46.4797 27.7524 21.1295 -46.4797 27.9149 18.0838 -46.4797 28.0775 
15.0382 -46.4797 28.2401 11.9925 -46.4797 28.4026 8.94684 -46.4797 28.5652 
5.90118 -46.4797 28.7278 2.85552 -46.4797 28.8904 -0.19015 -46.4797 29.0529 
-3.23581 -46.4797 29.2155 -6.28148 -46.4797 29.3781 -9.32714 -46.4797 29.5406 
-12.3728 -46.4797 29.7032 -15.4185 -46.4797 29.8658 -18.4641 -46.4797 30.0283 
-21.5098 -46.4797 30.1909 -24.5555 -46.4797 30.3535 -27.6011 -46.4797 30.516 
-30.6468 -46.4797 30.6786 -36.6882 -46.4797 31.0011 -39.6839 -46.4797 31.161 
-42.6797 -46.4797 31.3209 26.881 46.5174 21.2238 27.0498 46.5189 24.3859 
25.7528 46.5079 0.0872 25.9127 46.5093 3.08293 26.0726 46.5106 6.07867 
26.2325 46.512 9.0744 26.3924 46.5133 12.0701 26.5523 46.5147 15.0659 
28.5886 46.5066 -3.06844 31.5844 46.5066 -3.22835 34.5801 46.5066 -3.38825 
37.7357 46.5079 -0.55242 37.8957 46.5093 2.44331 38.0556 46.5106 5.43905 
38.2155 46.512 8.43478 38.3754 46.5133 11.4305 38.5353 46.5147 14.4263 
38.864 46.5174 20.5842 39.0328 46.5189 23.7463 -34.0322 46.5174 24.4752 
-33.8635 46.5189 27.6373 23.6666 46.516 18.2242 20.6209 46.516 18.3867 
17.5752 46.516 18.5493 14.5296 46.516 18.7119 11.4839 46.516 18.8745 
8.43825 46.516 19.037 5.39259 46.516 19.1996 2.34693 46.516 19.3622 
-0.69874 46.516 19.5247 -3.7444 46.516 19.6873 -6.79006 46.516 19.8499 
-9.83573 46.516 20.0124 -12.8814 46.516 20.175 -15.927 46.516 20.3376 
-18.9727 46.516 20.5002 -22.0184 46.516 20.6627 -25.0641 46.516 20.8253 
[...]
CELL_DATA 12638
SCALARS cell_scalars float
LOOKUP_TABLE default
-8536 -8258.9 -8681.9 -8775 -8312.4 -8717.1 -9100.7 -8410.2 -8763.7 
-8581.4 -8980.8 -8517.7 -8690.3 -8058.2 -8194.2 -7516 -7736.2 -7105.3 
-7521.2 -7299.7 -8052.2 -8033.1 -8548.8 -8388.4 -8875.4 -8636.2 -8781.6 
-8160.4 -8338.9 -7631.2 -7937.2 -7219.9 -7459.4 -7019.9 -7656.1 -7687.9 
-8281 -8192.6 -8732.7 -8552.7 -8822.3 -8280.2 -8428.6 -7759 -7937.9 
-7225.5 -7608.8 -6745.8 -7445.2 -7446.1 -8080.4 -7984.5 -8448.3 -8345.3 
-8787.3 -8355.1 -8525.1 -7873.5 -8070.2 -7301.4 -7535.5 -6943.7 -7412.4 
-6911.7 -7471.7 -7731.2 -7357.9 -7933.2 -7808.4 -7503.5 -7844.5 -7369.6 
-7830.5 -7487 -7829.7 -7316.1 -7788 -7330.2 -7812.4 -7352.7 -7813.4 
-7445.2 -7820.7 -7448.9 -7818.8 -7441.3 -7856.8 -7488.7 -7814.3 -7466.9 
-7865.9 -7498.1 -7884.9 -7487.2 -7854.6 -7471.4 -7869.8 -7475.8 -7908.6 
-7515.5 -7869.7 -7522 -7890.6 -7532.2 -7900.5 -7509.7 -7877.9 -7471.7 
-7907.2 -7498 -7933.8 -7523.5 -7906.1 -7520.8 -7892.2 -7507.3 -7907.5 
-7530.9 -7848.4 -7488.3 -7832.1 -7445.8 -7827.6 -7563.4 -7980.1 -7645.2 
-8070.5 -8130.5 -7522.4 -7905.8 -7701.8 -7140.2 -7254.2 -6856.3 -7718.2 
-7298 -7936.1 -7785.4 -8413.2 -8258.4 -8738.4 -8359.7 -8488.8 -8016.6 
-8189.4 -7527.8 -7559.7 -6990.8 -7632.5 -7186 -7808.3 -7631.6 -8308.5 
-8173.8 -8751.3 -8579.6 -8787.3 -8246.1 -8353.7 -7812.7 -7806.9 -7212.7 
-7433.4 -7027.2 -7850.8 -7525 -8196.8 -8047.8 -8667.2 -8506.8 -8891.6 
-8449.2 -8640.8 -8095.5 -8238 -7487.4 -7513.9 -7026.9 -7813.8 -7382.8 
-8000.5 -7880.6 -8563.6 -8371.1 -8890.7 -8641.2 -8843.8 -8437.7 -8799.3 
-8730.7 -8316.8 -8615.8 -8779.8 -8345.1 -8971.2 -8197.3 -8838.8 -8166.2 
-8758.5 -8166.3 -8740.8 -8131.4 -8696.8 -8144.7 -8721.6 -8108.3 -8754 
-8147.1 -8737.7 -8105.2 -8746.1 -8140.7 -8804.3 -8107.4 -8760 -8141.6 
-8756.5 -8129.8 -8781.8 -8100.7 -8760 -8122.8 -8804.1 -8108.7 -8782.3 
-8120.8 -8790.6 -8114.2 -8768.7 -8084.5 -8747.7 -8080.8 -8753 -8102.2 
-8719.1 -8091.4 -8711.9 -8041 -8648.4 -8058.8 -8692.3 -8006 -8657.5 
-8056.2 -8752.3 -8097.4 -8740.2 -8083 -8075.8 -8026.1 -7987 -8152.8 
-7981.8 -8012.2 -7148.8 -6967.5 -6712.1 -7025.1 -6922.5 -6825 -7100.7 
-7257.5 -6572.6 -6603.5 -8363 -8185.5 -8105.4 -8235.4 -7575.7 -7782.4 
-7121.8 -7281.1 -6786.5 -6879.9 -7224 -6830.4 -7812.4 -7608.4 -8121.7 
-7974 -8297.8 -8236.6 -7804.3 -8062.2 -7255.7 -7517.7 -6867.2 -7034.3 
-6853.3 -6703.7 -7559.5 -7223.5 -7972.6 -7789.1 -8266.3 -8069.9 -7934.6 
-8147.2 -7360.8 -7627.9 -6954.7 -7111.3 -6573.8 -6742 -7213.1 -6928.6 
-7781.2 -7576.9 -8092 -7910.9 -7987.7 -8119.8 -7458.7 -7668.7 -6895.6 
-7126.1 -7998.3 -8104.2 -7918.9 -8004.3 -7999.1 -7965.1 -7991.8 -7934.8 
-7985.1 -7972.7 -8060.9 -8052.1 -8025.4 -8064.6 -8128.1 -8056.6 -8094.9 
-8061.4 -8127.4 -8071.7 -8100.4 -8049.6 -8097.8 -8054.9 -8094.6 -8077.9 
-8095.1 -8042.2 -8095.8 -8041.4 -8111.9 -8037.8 -8121.1 -8023.7 -8075.6 
-8050.4 -8076.9 -8059.9 -8072.8 -8033.9 -8070.4 -8028.3 -8106.4 -8017.9 
-8053.2 -8003.4 -8054.3 -7899.4 -8004.3 -7882.1 -7960.1 -7836.8 -7972.6 
-6997.1 -6821.7 -6938.2 -6761.8 -7050.8 -6888.4 -6835.3 -6802.6 -6889.1 
-6614 -6829.3 -6661 -6891 -6670.6 -6921.4 -6886 -6905.2 -6755.8 
-6913.6 -6774.9 -6900.4 -6725.7 -6899.4 -6690.7 -6985.7 -6649.1 -6992.1 
-6691.2 -6949.3 -6715.4 -6915.3 -6724.8 -6937.2 -6724.6 -6959.7 -6732 
-6936.3 -6654 -6910 -6695 -6935.5 -6726.4 -6923.9 -6748.5 -7077.7 
-6900.4 -7180.1 -6854.4 -7144.1 -6959.2 -7072.6 -6982.4 -6568.1 -6552.9 
-7038.6 -6803.9 -7599.5 -7300.2 -8115.5 -7851 -8020.6 -8121.6 -7694.7 
-7803.7 -7177.8 -7383 -6627.6 -6719.8 -7027 -6848.3 -7488.4 -7207.8 
-8053.9 -7762.4 -8225.9 -8226 -7917.8 -7999 -7444.6 -7664.5 -6763.6 
-7110.2 -6922 -6745.7 -7363.9 -7111 -7916.1 -7601.1 -8299.5 -8143.8 
-8072.1 -8144.3 -7758.2 -7916.7 -7025.3 -7424.9 -6855.1 -6884.3 -7156.9 
-6938.9 -7689.9 -7398.2 -8190.7 -7906 -8291.2 -8303.7 -6578.2 -8103.6 
-6885.5 -6648.4 -8086.9 -6676.4 -7941.7 -8040.9 -8177.6 -8196 -8295.7 
-6591.5 -6543.9 -6773.2 -6647 -7675.2 -7921.7 -7244.1 -6986.8 -7953.9 
-7963.1 -7180.6 -7419.3 -7808.5 -7505.1 -6808.7 -6974.3 -7005.4 -6784.1 
-7634.8 -7242.5 -8000.9 -7796.4 -8236 -8066 -8016.6 -8226.1 -7455.8 
-7710.6 -6974.8 -7172.9 -6617.6 -6790.4 -7275.6 -6896.5 -7763.8 -7552.4 
-8040.4 -7958.6 -8124.7 -8221.2 -7580.7 -7836.1 -7027.4 -7298.8 -6685.8 
-6799.4 -7000.2 -6632.6 -7649.8 -7352.5 -7895.5 -7801 -8109.8 -8097.3 
-7661.3 -7926.6 -8128.6 -8039.7 -7810.2 -7983.5 -7401.4 -7633.3 -6832.3 
-7168.5 -6776.5 -6729.9 -7186.1 -6943.9 -7713.4 -7397 -8200.9 -7979.7 
-7995.5 -8146.6 -7661.2 -7839.2 -7061.2 -7420.7 -6786.8 -6776 -7085.7 
-6876.6 -7573.3 -7304.8 -8094 -7836.7 -8159.4 -8247.9 -7929 -8067.9 
-7536.7 -7723.4 -6900.9 -7173.4 -6983.6 -6807.6 -7375.9 -7153.9 -7774.6 
-7549.8 -7116.7 -7370.9 -8267.7 -8079.2 -8140.2 -8194.6 -8146.8 -8196.1 
-8196.6 -8231.4 -8177.2 -8319.7 -8174.2 -8257.3 -8213.1 -8298.3 -8271.3 
-8334.7 -8271.1 -8330.6 -8236.1 -8323 -8257.4 -8328.2 -8225.5 -8319.7 
-8232.1 -8320.2 -8216 -8312.3 -8220.5 -8296.7 -8191.5 -8278.8 -8168 
-8298 -8139.7 -8233.7 -8128.5 -8247.5 -8116.8 -8215.3 -8090.1 -8216.1 
-8084 -8204.4 -8094.8 -8190.8 -8125.1 -8197.7 -8094.4 -8214.1 -6479.4 
-6557.7 -6566.3 -6469.4 -6524.5 -6531.3 -6525.6 -6630.3 -6436.1 -6500.6 
-6475.7 -6611.6 -6655 -6696.5 -6568.1 -6678.9 -6488 -6681.6 -6513.6 
-6659.5 -6380.9 -6627.8 -6434.2 -6633.5 -6443 -6611.6 -6440.4 -6584 
-6473.3 -6649.4 -6376.6 -6639.4 -6469.6 -6586.6 -6491.2 -6599.7 -6506.5 
-6510.6 -6551.3 -6451.5 -6587.2 -6524.7 -6513.6 -6506.6 -6532.6 -6507.3 
-6385.4 -6490.4 -6510.2 -6526.6 -6659.1 -8278.7 -7989.2 -7997.1 -8040 
-8226.6 -8095.9 -6486.7 -6451.3 -6658.9 -6868 -6710.4 -6995.9 -6792.5 
-6702 -6806.7 -7514.7 -7245.1 -7912.5 -8152.2 -8225.9 -8119.7 -7436.9 
-7622 -7058.4 -7174.1 -8040.8 -7758 -8246.5 -8143.4 -6762.5 -6841.7 
-6846.6 -6894.5 -7983.3 -8142.4 -8135.5 -8062.7 -7282.1 -6862.9 -7757.1 
-7537.4 -8110.7 -7970.6 -8190 -8270.9 -7669.9 -7932.8 -7142.5 -7400.6 
-6687.2 -6938.9 -7061.8 -6685.4 -7608.8 -7351.8 -8003.1 -7834.1 -8245.2 
-8119.5 -7807 -8098.6 -7236.9 -7512.3 -6759.2 -6986.1 -6769.9 -6650.1 
-7287.5 -6915.2 -7689.7 -7512.6 -8074.4 -7859.6 -7935.5 -8120.2 -7370.3 
-7664.2 -7658.6 -7836.3 -7215.1 -7467 -6614.8 -6843.3 -6853.8 -6659.6 
-7370.2 -7107.7 -7932.4 -7646.2 -8207.7 -8182.9 -7919.8 -8063.1 -7479.8 
-7752.7 -6898.5 -7208.4 -6822.9 -6626.7 -7240.6 -6995.7 -7798.4 -7505 
-8297.2 -8083.3 -8098.4 -8233.9 -7680.2 -7908.9 -7047.4 -7325.2 -6757.7 
-6745.2 -7111 -6941.3 -7550.6 -7276.8 -8059.5 -7800.9 -8258.5 -8166.6 
-8283.2 -8171.9 -8271.1 -8137.1 -8259.6 -8148.2 -8266.7 -8172.3 -8262.6 
-8167.6 -8290.3 -8175.2 -8278.3 -8184.4 -8288 -8192 -8283.7 -8184.5 
-8283.9 -8208.8 -8274.5 -8191.3 -8281.7 -8198 -8319.8 -8198 -8317.8 
-8167 -8315.2 -8193.8 -8325.8 -8196.2 -8289.3 -8188.4 -8301.5 -8185.5 
-8245.3 -8161.7 -8204.9 -8183.2 -6721.9 -6812.7 -6751.3 -6886.5 -6765.2 
-6926.1 -6781.2 -6864.9 -6779.5 -6900 -6766.5 -6886 -6767 -6921.3 
-6730.2 -6889.4 -6728.6 -6873.7 -6726.5 -6877.8 -6736.9 -6858.3 -6722.9 
-6838.1 -6726.2 -6837.3 -6685.7 -6849 -6741.1 -6841.8 -6760.7 -6891.3 
-6756.3 -6877.7 -6792.4 -6877.7 -6608.4 -6833.7 -6688.2 -6767 -6645.9 
-6790.3 -6656.9 -6742.5 -8054.9 -8117.1 -8228.5 -6534.2 -6701.7 -8229.7 
-8249.6 -8144.1 -6940.2 -7154.4 -7735.8 -7932.2 -7014.6 -7176 -7270.3 
-7043.5 -7012.1 -7614.2 -7859.8 -7896.3 -7147.2 -7370.7 -6773.5 -6909.6 
-6955.3 -6719.9 -7802.6 -7567.7 -8101 -8068.1 -7742 -7952.1 -7297.4 
-7478.5 -6945.5 -7111 -7668.4 -7453.2 -7931.7 -7809.5 -7018.1 -7112.2 
-6907 -7076.9 -8093.9 -7923.6 -7878.3 -7759 -7523.9 -7180 -7443.9 
-7630.4 -7084.5 -7203.5 -7071.8 -7209.5 -7137 -7245.9 -7158.4 -7271.6 
-7182.8 -7304 -7207.9 -7351.3 -7214.3 -7359.5 -7214.8 -7378.6 -7191.3 
-7356.5 -7203.2 -7362.6 -7191.3 -7348.9 -7181.9 -7309.4 -7184 -7303.3 
-7157.7 -7339.3 -7186.2 -7361.9 -7908.8 -7745.1 -7903 -7738.1 -7943.4 
-7788.7 -7936.5 -7809.9 -7920.2 -7783.3 -7888.2 -7758.5 -7861.3 -7723.2 
-7851.3 -7692.1 -7863.3 -7708.2 -7849.1 -7674.3 -7850.7 -7711.3 -7836.1 
-7676.3 -7826 -7676.7 -7810.6 -7705 -7841.6 -7668.7 -7902.1 -8082.2 
-7583.3 -7814.8 -6888.1 -7331 -6784 -6626.5 -7092.7 -6838 -7576.9 
-7330.4 -8110.4 -7863.2 -8059.6 -8183.4 -7769.1 -7864.4 -7213.7 -7487.9 
-6744.2 -6781.6 -7023.4 -6877.5 -7453 -7217.3 -7938.6 -7708.4 -8264 
-8204.9 -7980.7 -8134.7 -6786.2 -6827.4 -7497.8 -7152.6 -7849.7 -7720.5 
-8153.5 -7990.6 -8122.9 -8261.9 -7565.7 -7879.1 -7023.2 -7285.8 -6637.7 
-6855.6 -7164.7 -6799 -7743.9 -7444.2 -8056.2 -7889.6 -8162.6 -8184.1 
-7674.4 -7949.2 -7168.7 -7411.1 -6802.3 -6989 -6726 -6774.5 -7240.4 
-7351.6 -7813.9 -7692.1 -7167.9 -7399.7 -7848.1 -7665.4 -7128 -7296.5 
-7837.6 -7721.3 -7058.7 -7231.7 -7889.5 -7726.8 -7785.3 -7135.2 -7748.1 
-7171.3 -7626.4 -7459.2 -7319.2 -7471.1 -7529.8 -7384.7 -7109.2 -7479.7 
-7584.3 -7435.7 -7888.6 -7426 -6911.9 -7117.3 -6692 -6739.9 -7060.6 
-8089.2 -7906 -7895.1 -8139.7 -7604.8 -7787.5 -7426.9 -7323.7 -7524.5 
-7619.4 -7388.1 -7306.6 -7366.9 -7274.6 -7369.4 -7215.4 -7357.7 -7264 
-7372.8 -7194.3 -7368.4 -7255.7 -7400 -7231.4 -7439.3 -7286.1 -7414.3 
-7291.4 -7450 -7327.9 -7439 -7325 -7456.9 -7347.6 -7473.2 -7323 
-7484.3 -7342.4 -7457.4 -7311.5 -7468.6 -7363.7 -7483.8 -7346.2 -7393.4 
-7301.5 -7617.5 -7720.1 -7690.6 -7794.9 -7698.9 -7845.6 -7765.5 -7905.3 
-7714.9 -7913.7 -7743.7 -7881.4 -7728.5 -7863.5 -7671.5 -7866 -7670.8 
-7825.6 -7637.3 -7808.6 -7656.8 -7781.9 -7625.6 -7776.5 -7590.2 -7761.7 
-7580.9 -7759.2 -7597.5 -7783.3 -7598.7 -7768.6 -7578.9 -7753.7 -7527.9 
-7708.7 -8085.9 -8060.7 -7701.3 -7861.6 -7366.2 -7563.6 -6628 -7049.4 
-6721.7 -6590.8 -7230 -6964.5 -7790.3 -7492 -8228.6 -8036.4 -7998.8 
-8165.4 -7598.9 -7801.6 -7011.1 -7285.8 -6735.8 -6815.5 -7110.2 -6906.6 
-7684.7 -7392.9 -8231.8 -7981.6 -8103.7 -8245.8 -6770.9 -6976.2 -6950.2 
-6771.9 -7650.1 -7351.2 -8075.1 -7897.2 -8279.2 -8228.1 -7795.8 -8067.7 
-7302.7 -7538.2 -6950.7 -7080.8 -6621.4 -6682.1 -7317.6 -7088.9 -7799.7 
-7600.4 -8156.2 -7981.7 -7989.5 -8150.3 -7415 -7687 -6867.9 -7107.7 
-6689.6 -6707.3 -7896.6 -7129.8 -7626.9 -8082.1 -7953.9 -7246.8 -7280.4 
-7030.2 -6980.9 -7428.9 -6811.2 -7976.7 -7796.3 -7212.2 -7594.7 -7027.4 
-6965.3 -6824.1 -8044.6 -8092.1 -8113.7 -7795.5 -7928.6 -6990 -6892.9 
-7017.1 -6915.3 -7077.8 -6937.1 -7040.9 -7040 -7115.1 -6989.3 -7059 
-6981.2 -7044.4 -6931.5 -7021.3 -6937.4 -7067.7 -6906.2 -7041.8 -6923.1 
-7030.3 -6906.7 -7014.6 -6940.3 -7104.4 -6928 -7079.5 -6984 -7113.3 
-6974.6 -7121 -7001.6 -7058.6 -6947.6 -8156.8 -8164.2 -8123.1 -8214.8 
-8146.5 -8207.3 -8136.5 -8205.8 -8120 -8225 -8108.9 -8183.3 -8097.7 
-8186.5 -8097.2 -8160.8 -8066.4 -8173.7 -8071.7 -8156 -8038 -8145.5 
-8086.7 -8118.1 -8094.1 -8145.5 -8048.9 -8197.3 -8053.1 -8142.1 -8029.6 
-8163.7 -7980.2 -8087.4 -7890.8 -8090.3 -7499.5 -7806.2 -6909.5 -7260.8 
-6646.9 -6605.9 -7054.4 -6838 -7519.1 -7303.6 -8051.2 -7812.8 -8132.1 
-8208 -7848.2 -7971.3 -7338 -7622.4 -6750.6 -7029.6 -6894.8 -6661.5 
-7378 -7089 -7924.6 -7637.1 -8272.3 -8152.1 -6781.6 -6767.5 -6856.4 
-7432.5 -7137.6 -7871.8 -7689.2 -8150.2 -7995.1 -8086.3 -8236.4 -7567.4 
-7859.9 -7010.9 -7306.2 -6578.8 -6790.7 -7183 -6791.1 -7751.1 -7513.9 
-8055.6 -7910.9 -8176.2 -8212.7 -7674.2 -7935.4 -7117.2 -7413.8 -6702.7 
-6954.4 -7043.5 -6932.1 -8079.1 -8138.2 -7072.1 -6814.4 -6740.5 -6810 
-6885.5 -6894.4 -7140.9 -6817.3 -6879.3 -8077.2 -7928.4 -6881.5 -6755.5 
-7320.6 -7617.5 -6836.8 -7040.3 -6574.3 -6926.5 -6782.2 -6689.4 -6887.7 
-6866.1 -6934.2 -6794.5 -6772.1 -6771.5 -6672.4 -6768.4 -6693.1 -6694.2 
-6820.9 -6704.5 -6703 -6678.4 -6858.9 -6705.9 -6837.4 -6757.9 -6808.1 
-8141.4 -8004.6 -7620.7 -7851.1 -6826.9 -6878.6 -6797.7 -6880.8 -6768.5 
-6919 -7778.4 -7935.6 -8080.5 -7902.5 -8112.8 -7966.7 -8059.1 -7951.2 
-8099.5 -7973.5 -8117.4 -7987.3 -8138.3 -8002.5 -8050.4 -7973.6 -8035.1 
-7914.4 -8004.6 -7926.6 -8014.9 -7884.2 -7990 -7916.2 -8017.5 -7908 
-8069.3 -7885.3 -8038.9 -7903.6 -8063.2 -7927.1 -8022.4 -7896 -7347.7 
-7603.2 -6770.9 -6995.2 -6724.1 -6585.4 -7234.3 -6936.1 -7789.8 -7502.4 
-8196.1 -8061.6 -7927.2 -8120.4 -7520.3 -7802.6 -6946.1 -7239.8 -6715.4 
-6810.3 -7155.3 -6984.5 -7658.3 -7407.9 -8158.7 -7936.9 -7666 -7289.6 
-8019.2 -7840 -8274.6 -8190 -7852.9 -8134.9 -7327.8 -7567.8 -6883.6 
-7085.3 -6652 -6800.3 -7362.2 -7061.1 -7808.9 -7601.8 -8158.1 -7941.4 
-7986.4 -8166.2 -7467 -7741.5 -6986.1 -7177.9 -6939.7 -7429.2 -7964.7 
-7094.8 -7388.6 -6913.9 -7240.2 -6890.3 -7015.4 -7381.8 -7158.5 -7562.2 
-7703.8 -7783 -7560.1 -7815.5 -7824.3 -7658.3 -8156.4 -8025.4 -8273.7 
-7026.5 -7270.1 -7060.1 -7383.3 -6688.4 -6770.1 -6832.1 -7813.3 -7690.8 
-7849.7 -7725.5 -7833 -7716.7 -7855.6 -7744.1 -7756.4 -7710.8 -7805.4 
-7642.4 -7814 -7701.2 -7814.8 -7730 -7863 -7731.7 -7788.7 -7695.9 
-7826.6 -7696.3 -7772.3 -7636.6 -7678.5 -7631.9 -7691.8 -7611.1 -7708.9 
-7622.5 -6627.9 -6734.1 -6972.2 -6787.1 -7491.6 -7237.3 -8045.6 -7779.1 
-8185.7 -8238.7 -7854.6 -8023.8 -7359.6 -7608.6 -6656.5 -7062.5 -6916.5 
-6690.9 -7362.9 -7100 -7889 -7608.1 -8214.4 -8058 -8156.4 -8291.4 
-7568.9 -7900.6 -7073.2 -7308.4 -6827 -6895.3 -7102.4 -6922.2 -7636.6 
-7377.5 -7995.1 -7884 -8204.7 -8195.3 -7701.2 -7998.4 -7156.4 -7430.4 
-6996.3 -7187.7 -7145.5 -7155.1 -7082.7 -7325.7 -7014.7 -7257.5 -6935.6 
-7165.6 -6988.3 -7198.8 -6982.9 -7197.8 -7032.5 -7182.6 -7001.6 -7196.8 
-7163.5 -7360.5 -7207.5 -7376.8 -7205.6 -7380.5 -7775.4 -7706.5 -7515.3 
-7435.4 -7669.3 -7231.8 -7476.7 -6692 -6899.3 -7540.6 -7618.4 -7267.4 
-8039 -7908.3 -6821 -6670.2 -7599.4 -7377.7 -8264.4 -8180.2 -7452.1 
-7406.2 -7220.4 -7015.4 -7903.3 -8134.6 -7409.5 -7270.4 -7594.7 -7716.2 
-7415.9 -7326.5 -7345.6 -7191.5 -7304.7 -7142 -7348.7 -7196.1 -7316.4 
-7129.7 -7343.5 -7188 -7348 -7186.9 -7433.6 -7262.3 -7397.5 -7247.8 
-7335.6 -7245.5 -8116.5 -8234.8 -8040.2 -8133.3 -7722.8 -7941.3 -7355.7 
-7217 -7443.8 -7408.4 -7747.6 -7464.6 -8203.4 -8030 -7969.9 -8134.6 
-7637.4 -7791.4 -7127.5 -7480.2 -6668.9 -6758.6 -7045.1 -6871.5 -7573.1 
-7308.6 -7368.5 -7623.6 -6851 -7059.9 -6835.1 -6800.8 -7358.5 -6955.3 
-7841.6 -7583 -8135.4 -7934.2 -8030.1 -8172 -7482.6 -7743.7 -6923.4 
-6704.6 -6626.1 -6535.1 -7530.2 -7645.7 -7688.5 -7725.3 -7632.8 -7785.3 
-7690.7 -7792.6 -7641.4 -7777 -7701.4 -7813.1 -7656.8 -7792 -7650.9 
-7836.1 -7600.4 -7710.2 -7602.8 -7811 -6955.4 -7873.7 -6997.4 -6690.3 
-6929.2 -6739.2 -6600.2 -6985.9 -7244.6 -6946.9 -7146.9 -6664.1 -6555.9 
-7019.4 -6799.3 -7244.9 -7910.9 -8005 -8226.1 -8163.2 -8168.8 -7831.6 
-8107.4 -8173.4 -8304.8 -7893.2 -8099.6 -7680.2 -7612.5 -7717.1 -7777.8 
-7950.5 -8002.6 -7893.6 -8021.3 -7910 -7962.6 -7882.3 -8011.3 -7902.9 
-7962.1 -7917.9 -7987.3 -7907 -7997.8 -7978.6 -7981.9 -7994.2 -8035.1 
-7922.9 -8068.6 -7430.9 -7119 -7953.8 -7678 -8192.9 -8206.8 -7801.8 
-8028.3 -7323.9 -7584.4 -6789.9 -6919 -6973.1 -6896 -7364 -7128.2 
-7680.4 -7986.1 -7122.7 -7418.7 -6764.2 -6923.2 -7165.8 -6869.4 -7693 
-7488.4 -7968.6 -7845.1 -8211 -8156.3 -7768.8 -8001.2 -7073.8 -6737.9 
-6934.9 -6746.4 -6926.1 -6759.9 -6967.5 -6705.7 -6882.2 -6635.3 -6826.4 
-6622.7 -6846.5 -6659.1 -6747.3 -6676.7 -6725.9 -6602.8 -6603.9 -6556.4 
-6840.1 -6683.2 -6566.6 -6647.2 -7098.6 -6822.8 -6683.2 -6882.7 -6630.9 
-6790.6 -6731.4 -8035 -7935.6 -7957.8 -8062.3 -8063.7 -8265.3 -8202.7 
-7191.8 -6981.4 -7508.2 -8237.5 -8254.3 -8100.9 -7882.1 -8117.6 -7610.6 
-8174.6 -8264.8 -8150.4 -8239.2 -8234.7 -8280.1 -8218.4 -8272 -8214.1 
-8292.5 -8210.6 -8282.2 -8234.8 -8286 -8218.2 -8292.4 -8224.5 -8256.5 
-7702.2 -7387 -6606.4 -6736.7 -6738.4 -6721.6 -6676.6 -6785.7 -6702.4 
-6801.7 -6643.5 -6798.6 -6628.7 -6747.4 -6590.1 -6725.8 -6581.4 -6659.7 
-6704.2 -6758.4 -6735.9 -6793.2 -8198.4 -7982.3 -8043.6 -8182.7 -7752.8 
-7870.9 -7087.7 -7505.3 -6680.9 -6754.3 -7022.3 -6782.8 -7372.7 -7615.3 
-7950.9 -6912.5 -7093.4 -6693.7 -6698.3 -7358.7 -7032.2 -7766.9 -7573.1 
-8102.4 -7913.3 -8000.8 -8184 -8109 -8187.8 -6928.4 -6698.4 -6762.4 
-6984.9 -8262.5 -8259.6 -8136.2 -7976.7 -7480.4 -7662.6 -7008.7 -7189.2 
-6725 -6808.7 -7368.9 -7122.4 -6931.4 -7105.8 -6916.1 -7033 -6959.7 
-6684.3 -6933.3 -7065.1 -8116.7 -8266 -7591.9 -7890.4 -7262.1 -8136 
-7981 -7492.9 -7187.9 -7755.5 -7013.3 -7240.5 -6987.9 -7158.1 -7016.6 
-7125.5 -7009.9 -7137 -6933.5 -7088.4 -6929.4 -7057.1 -7569.7 -7315.1 
-8015 -7859.8 -8251.8 -8161.6 -8170.4 -8009.3 -8199.6 -8029.4 -8162.8 
-8037.1 -8213.7 -8052.3 -8163.5 -8039 -8133.5 -8016.7 -7958.9 -7629.9 
-8130 -8172 -7826.7 -7965.9 -7413.4 -7684 -6819.3 -7089.9 -6824.6 
-6732.2 -7053.1 -7646.2 -7387.5 -7315.1 -7976.9 -8078.4 -7825.9 -7803.9 
-7567.7 -8104.2 -7433.9 -7619.8 -7359.7 -7506.9 -7401.4 -7541.3 -7363.1 
-7541.7 -7674.3 -7506.1 -7078.9 -7193.6 -6717.4 -6796.6 -6594.1 -7287.9 
-7523.8 -7044.8 -8147.8 -7940.4 -7377 -7531.2 -7721.2 -7543.7 -7370.3 
-7530.9 -7703.7 -7575.6 -7720.2 -7555 -7748.1 -7584.3 -7748 -7595.8 
-7745.7 -7618.4 -8084.8 -8190.4 -7656.2 -7914.5 -7066.8 -7394.4 -6760.4 
-6906.8 -7335.5 -6881.1 -7747.3 -7517.6 -8114.7 -7914.9 -7079.4 -7241.4 
-7756.9 -7963.6 -8144.1 -8209.3 -7696.2 -7505.8 -7607.1 -8116.3 -7910.3 
-8218.7 -6722.3 -6833 -6910.9 -6738.7 -7795.7 -7975.1 -7840.5 -7237.7 
-7090.2 -7893.5 -7928.9 -7258.3 -7155 -7273.7 -7148 -7479.4 -7236 
-7483.4 -7706.9 -7290.7 -7159.5 -7355.5 -7193.6 -7351.7 -7500.1 -7474.4 
-6777.8 -7158.8 -7054.9 -6846.1 -7893.4 -7711.7 -7815 -8044.3 -8046.1 
-7822.9 -7972.2 -7259.8 -7327.2 -7153.6 -6869.5 -7018.2 -8205.2 -8033.4 
-8201.2 -8202.4 -6724 -6751.9 -6701.9 -6839.2 -6677.2 -6576.9 -7178.7 
-7972.9 -7873.3 -8204.8 -7849.2 -7968.9 -6915.6 -6800.2 -6911.8 -6728.7 
-6921.5 -6788.5 -6967.1 -6838.1 -7968.2 -8210.4 -7667.5 -7945.4 -7300.4 
-7420.6 -7680.7 -7384.8 -8241.4 -8183.3 -6886 -8015.6 -6985.6 -6863.9 
-7253.2 -8135.9 -8160 -7958.8 -7829.7 -8190.7 -8243.4 -6716.1 -6621.8 
-7018.8 -8178.9 -8200.7 -8192.5 -6616.8 -6737.3 -6706.6 -6655.3 -7896.9 
-7985.5 -7576.3 -7759.1 -6766.9 -8052.2 -6947 -7213.7 -7170.6 -7293.8 
-7596.2 -7116.6 -7415 -7379.6 -7871.3 -7688.2 -8008 -8049.7 -7886.8 
-7933.2 -7727.1 -7667 -7803.6 3595.5 7647.1 12564 18224 -7599.7 
-6738.3 -5502.7 -3479.3 -8772.1 -8604.5 -8515.4 -8506.2 -9043.2 -8969 
-8958.2 -9015.6 -9183.2 -9159 -9162.6 -9197.3 -9271.7 -9269 -9279.3 
-9299.3 -9324 -9327.6 -9346.1 -9368.8 -9355.4 -9366.9 -9372 -9413.9 
-9350.9 -9339.2 -9367.2 -9382.6 -8917.6 -8990.5 -8950.2 -9055.2 -9139.7 
-9431.1 -9681.7 -9175 -9467.7 -9952.8 -9203.8 -9512.3 -9964.9 -9108.4 
-9526.7 -9970.5 -9090.8 -9552.7 -9838.5 -9060.2 -9563.2 -9823 -9117.9 
-9580.3 -9885.2 -9205.6 -9601.6 -9961.5 -9267.4 -9606.6 -10063 -9244.6 
-9631.6 -10119 -9174.2 -9629.1 -10070 -9092.5 -9647.9 -9988.7 -9156.1 
-9636.4 -9911.5 -9155.2 -9652.2 -9941.6 -9232.7 -9647.1 -10041 -9278.3 
-9661.5 -10111 -9368.4 -9660.2 -10155 -9310.3 -9658.1 -10140 -9187.1 
-9637.4 -10070 -9181.8 -9597.1 -9797.7 32385 29449 25169 22001 
6833.2 4879 1982.9 -467.71 -7107.4 -7278.4 -7856.1 -8368.2 -9161.1 
-9074.4 -9098.8 -9208.6 -9421.3 -9369 -9375 -9422 -9541.7 -9502.5 
-9506.2 -9522.1 -9615 -9571.6 -9567 -9578.3 -9622 -9599.2 -9591.3 
-9616.3 -9582 -9570.2 -9586.4 -9595.9 -9129.3 -9248.6 -9295.6 -9378.5 
-9101.5 -9412.3 -9339 -9155.6 -9384.4 -9352.4 -9149.8 -9373.2 -9363.5 
-9071.1 -9370.5 -9384.4 -9514.5 -9671.4 -9660.2 -9522.9 -9727.7 -9772.4 
-9545.3 -9686.3 -9677.6 -9797.3 -9696.8 -9629.4 2574.4 2575.8 2085.8 
1108.5 -7827.3 -7637.1 -7686 -7956 -8741.2 -8602.5 -8587.4 -8724.6 
-8997.7 -8905.7 -8840.3 -8903.3 -9113.9 -9081.6 -9092.2 -9124.6 -9232.2 
-9219.7 -9216.2 -9225.3 -9268.2 -9246.3 -9243.1 -9255.9 -9345.3 -9323.6 
-9319.1 -9325.7 -9390.2 -9378 -9376 -9391 -8983.4 -8973.5 -8975.9 
-9018.7 29068 30206 30207 29046 8369.5 9449.1 9488.3 8433 
-6289 -5726.6 -5685.9 -6208.5 -9223.2 -9102.6 -9117.9 -9238.1 -9355.4 
-9291.4 -9303.7 -9365.6 -9446.3 -9400.9 -9400.7 -9438.1 -9493.7 -9465 
-9464.6 -9501.6 -9579.3 -9559 -9559.9 -9594.3 -9619.5 -9614 -9614.4 
-9622 -9790.5 -9743.1 -9730.2 -9736 -9003.3 -9401.1 -9501.9 -9013.6 
-9443.4 -9747.7 -9023.7 -9469.1 -9779.8 -9022.5 -9484.8 -9858.9 -9034.1 
-9491.1 -9839.6 -9024.1 -9493 -9822 -9035.4 -9480.8 -9728.1 -9041.9 