# vtk DataFile Version 4.2
vtk output
ASCII
DATASET UNSTRUCTURED_GRID
POINTS 8741 float
-47.6578 -42.4693 30.7228 -47.6579 -30.4693 30.7146 -47.6587 30.5307 30.6732 
-47.6589 42.5307 30.665 -43.6596 46.5307 30.5877 -31.6617 46.5307 30.3639 
29.3277 46.5307 29.2263 41.3256 46.5307 29.0025 45.325 42.5307 28.9306 
45.3251 30.5307 28.9388 45.3259 -30.4693 28.9802 45.326 -42.4693 28.9884 
41.3268 -46.4693 29.0657 29.3289 -46.4693 29.2895 -43.6584 -46.4693 30.6509 
-31.6605 -46.4693 30.4271 29.1505 46.5243 19.7279 28.7589 46.51 -1.26841 
40.7568 46.51 -1.4922 41.1484 46.5243 19.5041 -31.8389 46.5243 20.8655 
-43.8368 46.5243 21.0893 -44.2284 46.51 0.093 -32.2305 46.51 -0.13079 
45.1478 42.5243 19.4323 -47.836 42.5243 21.1667 44.7562 42.51 -1.56408 
44.7563 30.51 -1.55592 45.1479 30.5243 19.4404 -47.8359 30.5243 21.1748 
-48.2275 30.51 0.17847 -48.2277 42.51 0.17031 45.1487 -30.4757 19.4819 
-47.8351 -30.4757 21.2163 44.7571 -30.49 -1.51445 44.7572 -42.49 -1.50629 
45.1489 -42.4757 19.49 -47.8349 -42.4757 21.2244 -48.2266 -42.49 0.2281 
-48.2267 -30.49 0.21995 41.1496 -46.4757 19.5674 -43.8356 -46.4757 21.1526 
40.758 -46.49 -1.42897 28.7601 -46.49 -1.20518 29.1517 -46.4757 19.7912 
-31.8377 -46.4757 20.9288 -32.2293 -46.49 -0.06757 -44.2272 -46.49 0.15623 
-31.8379 -26.4757 20.9152 -27.8386 -30.4757 20.8433 -27.8384 -42.4757 20.8515 
25.1523 -42.4757 19.863 25.1522 -30.4757 19.8549 29.1514 -26.4757 19.7776 
41.1494 -26.4757 19.5538 41.1487 26.5243 19.5177 29.1508 26.5243 19.7415 
25.1514 30.5243 19.8134 25.1513 42.5243 19.8053 -27.8395 42.5243 20.7937 
-27.8393 30.5243 20.8018 -31.8386 26.5243 20.8792 -43.8365 26.5243 21.1029 
-43.8358 -26.4757 21.139 52.9901 30.4821 -42.7166 52.9899 46.4821 -42.7275 
43.9914 55.4821 -42.5658 27.9942 55.4821 -42.2674 27.9943 46.4821 -42.2613 
23.995 42.4821 -42.1839 23.995 41.6821 -42.1834 -2.50037 41.6821 -41.6892 
-2.50024 31.2821 -41.6821 23.9951 31.2821 -42.1763 23.9952 30.4821 -42.1758 
27.9945 26.4821 -42.2477 28.7944 26.4821 -42.2626 28.7947 -0.0179 -42.2446 
39.1929 -0.0179 -42.4385 39.1926 26.4821 -42.4565 43.9917 30.4821 -42.5488 
39.9924 26.4821 -42.4715 40.3279 46.4943 -24.4882 28.33 46.4943 -24.2644 
28.3298 55.4943 -24.2705 44.327 55.4943 -24.5689 53.3256 46.4943 -24.7306 
53.3258 30.4943 -24.7197 44.3272 42.4943 -24.5601 44.3274 30.4943 -24.5519 
28.7589 46.51 -1.26841 24.7596 42.51 -1.19109 24.7598 30.51 -1.18293 
28.7591 26.51 -1.25481 40.757 26.51 -1.4786 44.7563 30.51 -1.55592 
40.7568 46.51 -1.4922 44.7562 42.51 -1.56408 24.2189 31.2903 -30.1784 
24.2188 41.6903 -30.1855 -2.27644 31.2903 -29.6842 -2.27658 41.6903 -29.6913 
39.4164 26.4902 -30.4586 29.0182 26.4902 -30.2647 39.4167 -0.00974 -30.4406 
29.0185 -0.00974 -30.2467 24.7596 42.51 -1.19109 24.7598 30.51 -1.18293 
28.7591 26.51 -1.25481 40.757 26.51 -1.4786 -44.1929 26.4821 -40.9012 
-44.1926 -0.0179 -40.8832 -33.7944 -0.0179 -41.0771 -33.7947 26.4821 -41.0951 
-32.9949 26.4821 -41.1101 -28.9956 30.4821 -41.1874 -28.9956 31.2821 -41.1879 
-2.50024 31.2821 -41.6821 -2.50037 41.6821 -41.6892 -28.9958 41.6821 -41.195 
-28.9958 42.4821 -41.1955 -32.9951 46.4821 -41.1236 -32.9952 55.4821 -41.1298 
-48.9925 55.4821 -40.8314 -57.9908 46.4821 -40.6574 -57.9906 30.4821 -40.6465 
-48.9921 30.4821 -40.8144 -44.9928 26.4821 -40.8862 -57.6549 30.4943 -22.6497 
-57.6551 46.4943 -22.6605 -48.6568 55.4943 -22.8345 -32.6595 55.4943 -23.1329 
-32.6594 46.4943 -23.1268 -44.6573 46.4943 -22.903 -48.6566 42.4943 -22.8257 
-48.6564 30.4943 -22.8175 -32.2305 46.51 -0.13079 -28.2311 42.51 -0.20267 
-28.231 30.51 -0.19451 -32.2302 26.51 -0.1172 -44.2281 26.51 0.1066 
-48.2275 30.51 0.17847 -44.2284 46.51 0.093 -48.2277 42.51 0.17031 
-28.7718 31.2903 -29.19 -28.772 41.6903 -29.1971 -2.27658 41.6903 -29.6913 
-2.27644 31.2903 -29.6842 -43.9691 26.4902 -28.9033 -33.5709 26.4902 -29.0972 
-33.5706 -0.00974 -29.0792 -43.9688 -0.00974 -28.8853 -28.2311 42.51 -0.20267 
-28.231 30.51 -0.19451 -32.2302 26.51 -0.1172 -44.2281 26.51 0.1066 
39.1932 -26.5179 -42.4205 39.1929 -0.0179 -42.4385 28.7947 -0.0179 -42.2446 
28.795 -26.5179 -42.2266 27.9952 -26.5179 -42.2116 23.9959 -30.5179 -42.1343 
23.9959 -31.3179 -42.1338 -2.49944 -31.3179 -41.6396 -2.49931 -41.7179 -41.6325 
23.9961 -41.7179 -42.1267 23.9961 -42.5179 -42.1261 27.9954 -46.5179 -42.198 
27.9956 -55.5179 -42.1919 43.9928 -55.5179 -42.4903 52.9911 -46.5179 -42.6643 
52.9909 -30.5179 -42.6751 43.9925 -30.5179 -42.5073 39.9931 -26.5179 -42.4354 
53.3266 -30.5056 -24.6783 53.3268 -46.5056 -24.6674 44.3285 -55.5056 -24.4934 
28.3312 -55.5056 -24.195 28.3311 -46.5056 -24.2012 40.329 -46.5056 -24.425 
44.3283 -42.5056 -24.5023 44.3282 -30.5056 -24.5104 28.7601 -46.49 -1.20518 
24.7607 -42.49 -1.1333 24.7606 -30.49 -1.14146 28.7598 -26.49 -1.21878 
40.7577 -26.49 -1.44257 44.7571 -30.49 -1.51445 40.758 -46.49 -1.42897 
44.7572 -42.49 -1.50629 24.2197 -31.3097 -30.1359 24.2199 -41.7097 -30.1288 
-2.27552 -41.7097 -29.6346 -2.27565 -31.3097 -29.6416 39.417 -26.5097 -30.4226 
29.0188 -26.5097 -30.2286 29.0185 -0.00974 -30.2467 39.4167 -0.00974 -30.4406 
24.7607 -42.49 -1.1333 24.7606 -30.49 -1.14146 28.7598 -26.49 -1.21878 
40.7577 -26.49 -1.44257 -44.2275 -26.49 0.14263 -32.2296 -26.49 -0.08116 
-28.2302 -30.49 -0.15304 -28.2301 -42.49 -0.14488 -32.9942 -26.5179 -41.074 
-44.9921 -26.5179 -40.8502 -44.1922 -26.5179 -40.8651 -43.9684 -26.5097 -28.8672 
-33.5703 -26.5097 -29.0612 -33.794 -26.5179 -41.0591 -28.9947 -42.5179 -41.1377 
-28.9948 -30.5179 -41.1459 -28.9948 -31.3179 -41.1454 -28.771 -31.3097 -29.1474 
-28.7709 -41.7097 -29.1404 -28.9947 -41.7179 -41.1383 -48.6555 -42.5056 -22.7679 
-48.6557 -30.5056 -22.776 -44.6562 -46.5056 -22.8398 -32.6582 -46.5056 -23.0635 
-43.9688 -0.00974 -28.8853 -33.5706 -0.00974 -29.0792 -33.7944 -0.0179 -41.0771 
-44.1926 -0.0179 -40.8832 -2.27565 -31.3097 -29.6416 -2.27552 -41.7097 -29.6346 
-2.49944 -31.3179 -41.6396 -2.49931 -41.7179 -41.6325 -32.6581 -55.5056 -23.0574 
-48.6553 -55.5056 -22.759 -57.6539 -46.5056 -22.5973 -57.6541 -30.5056 -22.6082 
-57.9898 -30.5179 -40.6051 -48.9914 -30.5179 -40.7729 -57.9896 -46.5179 -40.5942 
-32.9939 -46.5179 -41.0604 -32.9938 -55.5179 -41.0543 -48.991 -55.5179 -40.7559 
-45.1889 -46.1648 30.6793 -46.4864 -45.2977 30.7029 -47.3533 -44 30.7182 
-47.6578 -39.4693 30.7208 -47.6578 -36.4693 30.7187 -47.6579 -33.4693 30.7167 
-47.658 -27.4193 30.7126 -47.658 -24.3693 30.7105 -47.658 -21.3193 30.7084 
-47.6581 -18.2693 30.7063 -47.6581 -15.2193 30.7043 -47.6582 -12.1693 30.7022 
-47.6582 -9.11927 30.7001 -47.6582 -6.06928 30.698 -47.6583 -3.01928 30.696 
-47.6583 0.03072 30.6939 -47.6583 3.08072 30.6918 -47.6584 6.13072 30.6898 
-47.6584 9.18072 30.6877 -47.6585 12.2307 30.6856 -47.6585 15.2807 30.6835 
-47.6586 18.3307 30.6815 -47.6586 21.3807 30.6794 -47.6586 24.4307 30.6773 
-47.6587 27.4807 30.6752 -47.6587 33.5307 30.6711 -47.6588 36.5307 30.6691 
-47.6588 39.5307 30.667 -47.3545 44.0614 30.6583 -46.4875 45.3591 30.6412 
-45.19 46.2262 30.6164 -40.6601 46.5307 30.5317 -37.6606 46.5307 30.4758 
-34.6612 46.5307 30.4198 -28.6122 46.5307 30.307 -25.5627 46.5307 30.2501 
-22.5133 46.5307 30.1933 -19.4638 46.5307 30.1364 -16.4143 46.5307 30.0795 
-13.3649 46.5307 30.0226 -10.3154 46.5307 29.9657 -7.26594 46.5307 29.9088 
-4.21647 46.5307 29.852 -1.167 46.5307 29.7951 1.88247 46.5307 29.7382 
4.93194 46.5307 29.6813 7.98141 46.5307 29.6245 11.0309 46.5307 29.5676 
14.0803 46.5307 29.5107 17.1298 46.5307 29.4538 20.1793 46.5307 29.3969 
23.2288 46.5307 29.34 26.2782 46.5307 29.2832 32.3272 46.5307 29.1703 
35.3266 46.5307 29.1144 38.3261 46.5307 29.0584 42.856 46.2262 28.9741 
44.1535 45.3591 28.9505 45.0205 44.0614 28.9352 45.325 39.5307 28.9326 
45.325 36.5307 28.9347 45.3251 33.5307 28.9367 45.3251 27.4807 28.9408 
45.3252 24.4307 28.9429 45.3252 21.3807 28.945 45.3253 18.3307 28.9471 
45.3253 15.2807 28.9491 45.3254 12.2307 28.9512 45.3254 9.18072 28.9533 
45.3254 6.13072 28.9554 45.3255 3.08072 28.9574 45.3255 0.03072 28.9595 
45.3255 -3.01928 28.9616 45.3256 -6.06928 28.9636 45.3256 -9.11927 28.9657 
45.3257 -12.1693 28.9678 45.3257 -15.2193 28.9699 45.3257 -18.2693 28.972 
45.3258 -21.3193 28.974 45.3258 -24.3693 28.9761 45.3259 -27.4193 28.9782 
45.3259 -33.4693 28.9823 45.326 -36.4693 28.9843 45.326 -39.4693 28.9864 
45.0216 -44 28.9951 44.1547 -45.2977 29.0122 42.8572 -46.1648 29.037 
38.3273 -46.4693 29.1217 35.3278 -46.4693 29.1776 32.3284 -46.4693 29.2336 
26.2794 -46.4693 29.3464 23.2299 -46.4693 29.4033 20.1805 -46.4693 29.4601 
17.131 -46.4693 29.517 14.0815 -46.4693 29.5739 11.0321 -46.4693 29.6308 
7.98259 -46.4693 29.6877 4.93312 -46.4693 29.7446 1.88365 -46.4693 29.8014 
-1.16582 -46.4693 29.8583 -4.21529 -46.4693 29.9152 -7.26476 -46.4693 29.9721 
-10.3142 -46.4693 30.029 -13.3637 -46.4693 30.0858 -16.4132 -46.4693 30.1427 
-19.4626 -46.4693 30.1996 -22.5121 -46.4693 30.2565 -25.5616 -46.4693 30.3134 
-28.611 -46.4693 30.3702 -34.66 -46.4693 30.4831 -37.6595 -46.4693 30.539 
-40.6589 -46.4693 30.595 29.2096 46.5264 22.8941 29.2686 46.5285 26.0602 
28.8148 46.512 1.73107 28.8708 46.514 4.73055 28.9267 46.5161 7.73002 
28.9827 46.5181 10.7295 29.0386 46.5202 13.729 29.0946 46.5222 16.7285 
31.7584 46.51 -1.32436 34.7578 46.51 -1.3803 37.7573 46.51 -1.43625 
40.8128 46.512 1.50728 40.8687 46.514 4.50675 40.9246 46.5161 7.50623 
40.9806 46.5181 10.5057 41.0365 46.5202 13.5052 41.0925 46.5222 16.5047 
41.2075 46.5264 22.6703 41.2665 46.5285 25.8364 -31.7798 46.5264 24.0317 
-31.7207 46.5285 27.1978 26.101 46.5243 19.7848 23.0516 46.5243 19.8417 
20.0021 46.5243 19.8986 16.9527 46.5243 19.9555 13.9032 46.5243 20.0123 
10.8537 46.5243 20.0692 7.80424 46.5243 20.1261 4.75477 46.5243 20.183 
1.7053 46.5243 20.2399 -1.34417 46.5243 20.2967 -4.39364 46.5243 20.3536 
-7.44311 46.5243 20.4105 -10.4926 46.5243 20.4674 -13.542 46.5243 20.5243 
-16.5915 46.5243 20.5811 -19.641 46.5243 20.638 -22.6905 46.5243 20.6949 
-25.7399 46.5243 20.7518 -28.7894 46.5243 20.8087 -43.7777 46.5264 24.2555 
[...]
CELL_DATA 12638
SCALARS cell_scalars float
LOOKUP_TABLE default
-9560.4 -8883.8 -9439.6 -9365.5 -8911.8 -9635 -9426.1 -8406.1 -8956.5 
-8350.6 -8848.5 -8551 -9044.3 -8888.9 -9380.5 -9163.8 -9604.6 -9304.5 
-9835.4 -9555.4 -10015 -9731.4 -10147 -9879.1 -10355 -10005 -10384 
-10076 -10427 -10180 -10450 -10051 -10309 -9875.3 -10169 -9694.9 
-10052 -9537.8 -9919.9 -9354.9 -9799.9 -9168.8 -9580.5 -9042.4 -9404.4 
-8861.7 -9346.8 -8765.5 -9404.3 -8635.9 -9144.4 -8485.2 -9156.7 -8957.2 
-9421.8 -9155.8 -9669.3 -9378 -9816.2 -9558.1 -10025 -9730.5 -10233 
-9959.6 -10467 -10455 -10199 -10543 -10610 -10235 -10536 -10038 
-10459 -10091 -10480 -10021 -10439 -9987.7 -10431 -9978.7 -10444 
-10059 -10427 -10025 -10448 -10076 -10491 -10097 -10495 -10093 
-10550 -10104 -10532 -10108 -10524 -10129 -10520 -10107 -10543 
-10124 -10567 -10129 -10561 -10122 -10572 -10113 -10561 -10106 
-10537 -10083 -10527 -10083 -10492 -10099 -10504 -10091 -10521 
-10090 -10525 -10139 -10538 -10107 -10514 -10176 -10558 -10270 
-10722 -10662 -10318 -10636 -10611 -10163 -10410 -9904.4 -10231 
-9722.5 -10003 -9486 -9862.9 -9392.7 -9743.7 -9072.7 -9503.6 -8890.4 
-9137.1 -8500.9 -9214.6 -8688.8 -9412 -8775.4 -9221.3 -8846.1 -9317.7 
-8985.8 -9592.9 -9156.5 -9700.8 -9367 -9872.3 -9525.8 -10018 -9690.2 
-10176 -9868.2 -10279 -10033 -10381 -10112 -10394 -10034 -10323 
-9983.1 -10314 -9855.3 -10155 -9669 -10010 -9500.9 -9843.5 -9287.3 
-9620 -9127.9 -9434.4 -8909.9 -9089.5 -8544.9 -8813.7 -8387.2 -8971.5 
-9153.7 -8629.8 -9239 -9268.1 -8430.8 -9144.3 -8425.5 -8966.7 -8293.5 
-9002.4 -8346.6 -9024.4 -8306.3 -9010.5 -8237.6 -8975.7 -8268.9 -8876.6 
-8260.9 -8881.3 -8275 -8931.4 -8245.7 -8918.5 -8314.3 -8982.2 -8330.8 
-8975.1 -8308 -8961.7 -8309 -8982.1 -8303 -8970.7 -8305.4 -9027.9 
-8347.2 -9020.1 -8358.8 -9019.8 -8360.4 -9001.2 -8337.6 -9023.6 -8336.5 
-9056.9 -8332.1 -9066.8 -8383.5 -9079.7 -8372 -8996.3 -8409.8 -9188.8 
-8449.3 -9221.7 -8528.5 -9153.5 -8625.5 -8497.9 -8161.4 -8162.2 -8205.5 
-8019.3 -8123.3 -9812.5 -9828.3 -9714.7 -9753.3 -9685.1 -9835 -9910.1 
-9911.6 -9656.4 -9705.6 -8407 -8100.9 -8566.4 -8379.7 -8869.8 -8797.1 
-9046.1 -8987.4 -9220.8 -9156.5 -9396.5 -9314 -9516.6 -9490.3 -9653.8 
-9586.2 -9754.3 -9656.1 -9859.3 -9777.3 -9805.3 -9827.3 -9631.4 -9703 
-9436.6 -9488.1 -9258.4 -9313.1 -9075.9 -9138.5 -8901.4 -8944.5 -8741.4 
-8783.5 -8603.5 -8639.1 -8481.2 -8547 -8432.6 -8451.5 -8426.7 -8389 
-8580.7 -8473.2 -8875.8 -8727.1 -9094.2 -8972.1 -9251 -9202.3 -9479.3 
-9359.8 -8209.5 -8100.6 -8250.9 -8039.7 -8084.4 -8023.6 -8146.9 -8082.5 
-7957.5 -8113.9 -8096.2 -8136.1 -8084.4 -8065.3 -7938.9 -8087.8 -8049.3 
-8053.1 -8106.5 -8083.8 -8058.3 -8060 -8098.7 -8090.3 -8061.1 -8055.2 
-7948.2 -8043 -7978.9 -8104.9 -7907.1 -8095.8 -7907.3 -8124.7 -8052.8 
-8058.2 -8099.2 -8087.5 -8104.8 -8140.2 -8163.6 -8096.2 -8142.4 -8132 
-8159.4 -8094.6 -8162.9 -8169.9 -8167.4 -8003.4 -8129 -7968.5 -8021.7 
-9692.6 -9639.8 -9664.3 -9627.3 -9738.3 -9621.7 -9649 -9607.4 -9697 
-9644.2 -9626.6 -9602.8 -9680.3 -9601.5 -9664.3 -9577.6 -9692.3 -9624.1 
-9680.3 -9625.7 -9671.9 -9621.1 -9699.6 -9622.5 -9704.7 -9622.8 -9746.3 
-9627.1 -9709.3 -9646.7 -9710.5 -9667.3 -9705.5 -9656.8 -9717.8 -9663 
-9734.9 -9659.6 -9723.9 -9685 -9737.7 -9684.8 -9746.8 -9676.7 -9763 
-9711.4 -9798.4 -9722.6 -9775.7 -9692.2 -9791.9 -9739.1 -9515.4 -9544.4 
-9271.6 -9295.4 -9074.1 -9074 -8851.6 -8908.5 -8527.2 -8644.5 -8322.9 
-8421.2 -8434.4 -8400.1 -8530.4 -8425.1 -8608.9 -8595.8 -8738.3 -8644.5 
-8893.8 -8790 -9075.1 -8943.8 -9255.5 -9114.7 -9428.5 -9298.8 -9629.3 
-9480 -9819.3 -9679.3 -9889.4 -9829.3 -9793.8 -9795.9 -9668.2 -9679.2 
-9574.3 -9583.7 -9405.6 -9455.7 -9247.3 -9297.6 -9069.7 -9121.2 -8969.6 
-8988.6 -8771.1 -8822.8 -8329 -8501 -8184.5 -8215.5 -9535.4 -8283.4 
-9757.5 -9671.4 -8127.7 -9522 -8162 -8152 -8255.6 -8547.2 -8332.4 
-9522.8 -9487.6 -9284.5 -9369.7 -8899.1 -8741.9 -9154.9 -9237.4 -8033.8 
-8108.6 -9062.7 -8963.1 -8935.4 -9056.3 -9218.6 -9088 -9363.4 -9284.1 
-9520.6 -9386.4 -9577.2 -9497.6 -9654.6 -9620.4 -9766.4 -9724.5 -9831.4 
-9807.3 -9657.6 -9738.7 -9456.6 -9535.9 -9260 -9362.7 -9096.9 -9170.2 
-8921 -8999.8 -8765.1 -8806.4 -8597.8 -8656.8 -8459.8 -8506.6 -8357.9 
-8395.1 -8279.9 -8345.7 -8632.8 -8447.1 -8702.4 -8579.5 -8909.2 -8837.8 
-9172.5 -9007.9 -8719.1 -8832.5 -8387.6 -8607.2 -8372.2 -8386 -8404.7 
-8366.5 -8541.4 -8426.8 -8636.9 -8542.3 -8764.8 -8687.6 -8932.9 -8833.2 
-9111.2 -9015 -9295 -9195.2 -9485 -9363.4 -9669.9 -9566.6 -9833.7 
-9755.3 -9773.8 -9803.6 -9655.4 -9716.6 -9563.3 -9655.8 -9447.1 -9532.2 
-9347.1 -9410.4 -9164.2 -9318.3 -8920.2 -9021.6 -8836.1 -8856.3 -8680.6 
-8796.7 -9292.8 -9173.8 -8260.5 -8412.2 -8232.7 -8261.4 -8193.5 -8246.8 
-8170.5 -8157.5 -8250.2 -8390.1 -8153.6 -8275.6 -8036.5 -8287.7 -8096.4 
-8219.5 -8045.1 -8049.1 -8053 -8190.5 -8077.1 -8090.6 -7921.6 -8106.7 
-7946.1 -8124.3 -7850 -8058.7 -7896.9 -8049.8 -8066.8 -8088.4 -8102.5 
-8114.2 -8120 -8179 -8147 -8153.1 -8099.7 -8181.3 -8141.7 -8124.9 
-8106.8 -8182.6 -8125.3 -8173.9 -8053.5 -8115.7 -8191.5 -8114.9 -9479.9 
-9448.4 -9405.9 -9448.8 -9510.3 -9498.6 -9516.8 -9407.2 -9572.4 -9506 
-9573.5 -9479.5 -9524.2 -9474.4 -9520.6 -9475 -9540.8 -9453.2 -9509.4 
-9515 -9589.2 -9495.5 -9554.3 -9501.1 -9564.3 -9528.5 -9566.1 -9533.7 
-9577.4 -9553.7 -9597.6 -9531.4 -9605.5 -9571 -9646.2 -9551.8 -9654 
-9595.9 -9652.1 -9633.7 -9567 -9538.3 -9591.5 -9519.2 -9545.7 -9498.9 
-9574.2 -9521.1 -9546.8 -9540.3 -9333.2 -8441.5 -8003 -8026 -8103.4 
-7956.2 -7958.1 -9529.8 -9607.5 -9496.2 -9417.6 -9423.7 -9284.8 -9276.3 
-9372 -9288.5 -9098.5 -9079.6 -8649 -8552.5 -8341.4 -8663.6 -8881.3 
-8898.4 -8958.4 -8998.2 -8904 -8977.8 -8434.2 -8497.9 -9331.7 -9296.5 
-9174.7 -9055.1 -8651.7 -8821.1 -8001.6 -8049.6 -9366 -9219.3 -9486.4 
-9439.6 -9648.2 -9549 -9750.2 -9718.3 -9825.8 -9791.2 -9720.1 -9796.3 
-9515.5 -9623.3 -9309.1 -9427.1 -9130.3 -9226.7 -8941.8 -9048.2 -8753.7 
-8872.2 -8627.9 -8720.1 -8474.2 -8540.7 -8356.2 -8403.5 -8260.7 -8333 
-8352.4 -8359.7 -8471.7 -8353.9 -8959 -8727.4 -9059.9 -8945.7 -9230.1 
-9061 -8473 -8516.8 -8266.8 -8279 -8360.2 -8348.2 -8449.4 -8401.3 
-8627.5 -8545.5 -8766.9 -8679.2 -8947.7 -8839.6 -9149.3 -9027.4 -9326.7 
-9204.8 -9516.9 -9398.1 -9699.1 -9602.4 -9817.6 -9763.1 -9761.5 -9805.3 
-9703.4 -9709.7 -9561.4 -9620.9 -9392.6 -9473.2 -9199 -9309.8 -9047.1 
-9170.3 -8905.2 -8990.9 -8777.8 -8844.3 -8385.6 -8537.4 -8448.8 -8522.1 
-8348.6 -8568.7 -8570 -8709.6 -8537.8 -8632.9 -8541.1 -8558 -8429.8 
-8594.2 -8434.7 -8678.8 -8401.2 -8624.5 -8411.1 -8616.8 -8428.4 -8596.4 
-8406.6 -8639 -8504.4 -8576.9 -8475.6 -8566.3 -8471.8 -8554.1 -8466.7 
-8550.3 -8460.8 -8590.7 -8494.9 -8528.4 -8438.5 -8533 -8209.2 -8465.6 
-8248.2 -8298.4 -8310.3 -8407 -9351.3 -9343.3 -9367.7 -9336.7 -9432.5 
-9286 -9438.3 -9420.3 -9430.3 -9445.9 -9475.6 -9421.9 -9492.1 -9409 
-9485 -9402.1 -9476 -9423.3 -9507.2 -9439.2 -9486.2 -9445.4 -9497.9 
-9470.7 -9502.7 -9437.8 -9559 -9464.1 -9483 -9457 -9444.8 -9359.5 
-9397.6 -9366.4 -9453.9 -9400.4 -9490.4 -9432.5 -9413.7 -9424.9 -9430.5 
-9391.5 -9413.8 -9388.4 -7881 -7929.6 -8134.6 -9514 -9376 -8308.4 
-8207.6 -8460.6 -9337.1 -9282.4 -8590 -8449.9 -9284.5 -9265.4 -9121.4 
-9206.9 -9193.6 -8810.7 -8785.3 -8693.3 -8999.5 -8936.3 -9189.8 -9108.3 
-9336.8 -9216.5 -8957.2 -8982 -8660.9 -8930.3 -8337 -8651.5 -8794.6 
-8791 -9339 -9288 -9110.7 -9216.2 -8457.1 -8567.1 -9389.5 -9314.4 
-8981.1 -8919.6 -8835.3 -9067.2 -8620.4 -8663.1 -9400.3 -9338.9 -8259.1 
-8357.9 -9368.9 -9239.1 -9379.5 -9318.1 -9375.4 -9359.5 -9357.5 -9357.8 
-9237.3 -9304.5 -9233.3 -9190.3 -9214 -9157.4 -9209 -9138.7 -9208.9 
-9165.3 -9255.9 -9125.7 -9249.6 -9226.9 -9260 -9243.3 -9271 -9228.7 
-9343.6 -9272.3 -9257.7 -9159.8 -8605.4 -8712.1 -8539.3 -8581.7 -8557 
-8627.2 -8541.9 -8648.1 -8573.9 -8646.1 -8684.3 -8643 -8748.3 -8795.7 
-8727.7 -8811.5 -8791.2 -8795 -8805.8 -8878.9 -8813.4 -8846.3 -8809.5 
-8882.4 -8862 -8911.4 -8863.8 -8905.7 -8803.3 -8956.8 -8744.5 -8859.3 
-8537.7 -8709.1 -8344.8 -8267.2 -8523.5 -8382.5 -8559.8 -8479.9 -8647.1 
-8605.8 -8770.8 -8722.3 -8947.3 -8880.1 -9105.2 -9023.6 -9305.7 -9216.7 
-9488.9 -9379.8 -9690.7 -9588.6 -9827.2 -9783.2 -9755.3 -9759 -9689.5 
-9700.4 -9588.3 -9647.3 -9185.1 -9076 -9339.5 -9267.7 -9422.2 -9422.8 
-9529.9 -9480.9 -9646.6 -9592.4 -9778.4 -9711.9 -9776.5 -9798.2 -9605.4 
-9709.5 -9421.5 -9525.6 -9202 -9327 -9019.2 -9141.3 -8853.2 -8969.6 
-8702.7 -8785.5 -8586 -8639.9 -8476 -8540 -8401.6 -8431.8 -9135.6 
-9192.6 -8867.4 -8895 -9278.7 -9096.3 -8686.7 -8873.7 -9235.3 -9212.1 
-8842.7 -8876.7 -9241.9 -9203.4 -8749.6 -8823.7 -9528 -8350.6 -8825 
-9152 -9083.3 -9039.7 -8963.9 -8942.5 -8791.7 -8842.5 -8911.2 -8864.8 
-9138.2 -9165.5 -9113.8 -9209.7 -9100.6 -9007.2 -9195.8 -9168.6 -9333.8 
-8773.7 -8911.7 -8474.8 -8837.7 -8427.1 -8556.7 -8944.8 -8991.9 -9102.1 
-8996.7 -9020.7 -9008.3 -9013.2 -9009.4 -8920.9 -9016.4 -8949.5 -8943.9 
-8990.1 -9040.4 -8955.1 -8906.6 -8956.5 -8928.2 -8820.6 -8873.1 -8820.5 
-8895.9 -8832.1 -8862.2 -8849.1 -8899.9 -8882.6 -8931.1 -9040.5 -9020.7 
-8851.6 -8988.7 -8824.5 -8956.5 -8853.7 -8873.2 -8887.3 -8962.8 -8826.3 
-8969.7 -9055.8 -9051.2 -9073.4 -9030.5 -9095.7 -9035.1 -8933.1 -8991.1 
-9041.5 -8942.8 -9007.9 -9000.1 -9026.7 -9036.9 -9123.1 -9029.2 -9216.7 
-9045.7 -9237.6 -9122.6 -9210.8 -9180.3 -9199.3 -9141.3 -9254.5 -9165.4 
-9230.7 -9153.9 -9140.8 -9043.3 -9115.8 -9045.3 -9081.3 -9019 -9197.5 
-9038.2 -8901.4 -8994.2 -8547.9 -8683.1 -8325.4 -8394.3 -8234.4 -8298.1 
-8367.2 -8342.4 -8467.1 -8415 -8629.9 -8556.1 -8781.5 -8661.6 -8952.3 
-8842.8 -9118.3 -9048 -9314.2 -9236.4 -9526.5 -9430 -9693.9 -9613.8 
-9794.8 -9801.2 -9673.1 -9738.2 -9582.8 -9656.5 -9068.2 -8977.2 -9175.7 
-9048.4 -9391.7 -9279.5 -9568.7 -9453.7 -9672.4 -9615 -9744 -9734.6 
-9802.6 -9784.2 -9764 -9825.6 -9560.4 -9648.4 -9371.2 -9448.4 -9181.7 
-9270.4 -9007.8 -9084.6 -8854.8 -8890.1 -8689.9 -8748.8 -8531.2 -8569.2 
-8478.8 -8466.3 -8931 -9065.9 -9162.4 -8850.3 -8964.6 -8901.9 -8893.3 
-8972.3 -8429.1 -8301.2 -8381 -9566.1 -9509.3 -9331.7 -9422.6 -9069.6 
-9070 -9108.3 -8874.3 -8812.3 -8720.5 -8524.8 -8640.7 -9092.4 -9071.3 
-9052.7 -9132.3 -8950.9 -9058.4 -9013.9 -9025.6 -8928.6 -9066.8 -9052.9 
-9103.7 -9113.1 -9100.1 -9113.7 -9087 -9078.9 -9083.6 -9077.6 -9116 
-9066.4 -9107.6 -8957.4 -9041.5 -8956.3 -9023.6 -9094.1 -9019.7 -9028.2 
-9008.1 -8992.8 -9012 -9008.1 -9033.1 -8893.6 -8824 -8908 -8828.3 
-8962.7 -8926.7 -8972.4 -8931.6 -9009.5 -8977.8 -8993.9 -8923.1 -8958.6 
-8949.6 -8936.4 -8987.9 -8996.1 -8921.9 -9006.3 -8907.9 -8888.4 -8892.5 
-8906.1 -8923 -8949.8 -8872.6 -9127.1 -8995.2 -9084.7 -9014.7 -9110.4 
-9098.1 -9067.6 -9009.9 -8771.9 -8845 -8448.2 -8783.1 -8424.7 -8295.8 
-8448 -8376.8 -8537.9 -8511.6 -8605.9 -8581.2 -8707.3 -8693.3 -8898.7 
-8819.8 -9038.1 -8970.5 -9252.3 -9157.2 -9435.8 -9340 -9628.6 -9522.9 
-9814.2 -9742.3 -9763.8 -9823.8 -9697.9 -9748.7 -9221.2 -9089.8 -9073.3 
-9356.8 -9280.7 -9459.6 -9376.3 -9529.2 -9502.1 -9680.2 -9595.3 -9804.9 
-9742.1 -9790.2 -9810.3 -9581 -9677.8 -9411.5 -9481.3 -9181.3 -9299 
-9013.3 -9100.8 -8836 -8921.1 -8694.9 -8727 -8537.7 -8611.4 -8442.3 
-8520.4 -8985 -8975.9 -8988.3 -8914.7 -9315.8 -9225.5 -9213.7 -9258.8 
-9170.2 -9118.2 -9276 -9114.3 -9157.7 -8834.4 -8630.5 -9043.3 -9170.7 
-8355.8 -8425 -8333.9 -8361.7 -8380.2 -9049.4 -9147 -9228.4 -9282.5 
-9117.5 -9146.6 -9139.7 -9200.2 -9120.3 -9154.2 -9099.5 -9121 -9165.7 
-9149.9 -9127.8 -9143.9 -9160 -9186.7 -9218.3 -9191.1 -9245.5 -9257.5 
-9634.2 -9563.3 -9434.6 -9507.7 -9213 -9281.1 -9261.5 -9308.1 -9243.3 
-9270.4 -8678.3 -8824.3 -8891.9 -8829.4 -8928.4 -8757.1 -8773.5 -8773.6 
-8923.4 -8791.5 -8869.4 -8800 -9007.5 -8828.4 -8806.9 -8778.7 -8769.2 
-8733 -8679.5 -8724.1 -8741.7 -8666.7 -8695.4 -8709.1 -8754.6 -8722.8 
-8747.6 -8599.1 -8754 -8577.6 -8846.8 -8749.7 -8689.1 -8589.3 -8295.7 
-8564.4 -8256 -8312.5 -8398.9 -8296.5 -8507.2 -8413 -8651.6 -8579.5 
-8833.1 -8745.2 -9008.3 -8898.5 -9198.2 -9085.9 -9349.2 -9267.7 -9566.4 
-9465.8 -9762.5 -9678.7 -9783 -9793.5 -9710.7 -9729 -9394.1 -9304.7 
-9526.9 -9466.2 -9675.1 -9597.3 -9711.9 -9686 -9763 -9771.1 -9712 
-9759 -9541.7 -9644.8 -9337.3 -9444.4 -9156 -9239.5 -8959 -9077.7 
-8795.6 -8909.9 -8668.7 -8748.5 -8555.9 -8603.2 -9280.9 -9447.6 -8714.2 
-9284.3 -9319.2 -9250.3 -9262.6 -9242.9 -9263.9 -9378.3 -9348.1 -8447.8 
-8443.3 -8697.6 -8444.6 -8652.6 -9461.8 -9450.5 -9650.5 -9580.5 -9689.1 
-8308.8 -8354.3 -8311.1 -8300.2 -8497.4 -8419.9 -8533.8 -9437.1 -9406.9 
-8719 -8575.7 -8691.2 -8603.2 -8795.2 -8546.8 -8579.4 -8594.5 -8638.4 
-8434.5 -8714.6 -8598.9 -8639.6 -8615.3 -8743.6 -8556.7 -8583.4 -8480.4 
-8665.6 -8506.1 -8545.3 -8390.8 -8429.3 -8340.5 -8376.9 -8355.2 -8479.8 
-8426.5 -8395.4 -8395.4 -8465.8 -8408.5 -8628.3 -8536.1 -8743.3 -8673.7 
-8830.7 -8767.3 -9045.6 -8932.9 -9218.8 -9155.2 -9438.6 -9308.2 -9638.9 
-9541.8 -9807.1 -9724.4 -9767.4 -9826.6 -9594.2 -9538.7 -9679 -9652 
-9785.5 -9709.1 -9762.6 -9810.9 -9647.1 -9704.2 -9410.6 -9508.7 -9250.4 
-9337.7 -9055.4 -9130 -8862.2 -8944.8 -8710.4 -8765.8 -8499.4 -8641.9 
-9293.4 -9287.3 -9240.9 -9304.2 -9320 -9324.1 -9307.7 -9312.1 -9267.4 
-9388 -9282 -9304 -9249.4 -9387 -9288.2 -9335.3 -9235.1 -9333.8 
-9291.6 -9323.8 -9304.1 -9335.9 -9317.3 -9315 -8557.4 -9439.1 -9325 
-9321.6 -9391.5 -8272 -8327.5 -8352.3 -8348.5 -8312.5 -8371.5 -8376.8 
-9540.4 -9490 -8472.9 -8399.4 -8464.3 -8319.4 -9626.9 -9547.2 -8321 
-8409.7 -8536.1 -8479.6 -9720.1 -9652 -8498.7 -8333 -9435.3 -9420.4 
-8252.1 -8328.9 -8439.1 -8386.3 -8525.9 -8471.7 -8473.8 -8393.9 -8450.6 
-8425.9 -8405 -8419.3 -8315.8 -8330.6 -8213.4 -8283.7 -8232.7 -8270.4 
-8330.2 -8233.3 -9716.6 -9655.9 -9598.8 -9600.6 -9484.8 -9517.3 -9347 
-9374.8 -9367 -9365.5 -8660.2 -8594.5 -8835 -8751.3 -8998.1 -8883.7 
-9167.4 -9116.4 -9322.7 -9216.2 -9514.4 -9424.9 -9695 -9608.9 -9826.8 
-9779.5 -9796.4 -9764.9 -9683 -9765.5 -9510.5 -9627.2 -9339.6 -9434.9 
-9130.5 -9241.2 -8969.7 -9062 -8765.1 -8881.5 -8670.9 -8687.9 -8476.3 
-8401.1 -8397.8 -8346.4 -9333.7 -9413.5 -9441 -9399.6 -9439 -9479.3 
-9499.6 -9490.7 -9470.6 -9481.2 -9512.7 -9522 -9487.3 -9476.8 -9459.4 
-9510.1 -9405.6 -9483 -9469.8 -9467.8 -8427.9 -9449.2 -8348.1 -8343 
-8476.4 -8396.2 -8382.2 -8482.5 -8283.9 -8438.3 -8349.5 -8418 -8370.2 
-8565.6 -8470.8 -8639.9 -9489.4 -9529.8 -9590.9 -9599.6 -9648.1 -9812.8 
-9729.7 -9636 -9741 -9518.2 -9581.4 -9456.1 -9452.6 -9431.8 -9525.1 
-9508.9 -9541.6 -9469.1 -9529.1 -9419.8 -9483 -9438.2 -9507.2 -9439.9 
-9483.9 -9454.2 -9508.7 -9456.4 -9530.5 -9522.3 -9531 -9570.4 -9541.5 
-9530.3 -9602.2 -8579.4 -8516.2 -8701.5 -8642.9 -8842.5 -8769 -9079.4 
-8947.5 -9268.7 -9140.6 -9507.2 -9406.4 -9668.5 -9584.3 -9782.6 -9756 
-9776.1 -9714.6 -9787.3 -9803.9 -9615.3 -9728.1 -9378.7 -9480 -9182.9 
-9256.9 -9047.7 -9114.5 -8895.1 -8947.4 -8784.2 -8817.8 -8285.8 -8336.2 
-8264.1 -8392.9 -8282.8 -8270.4 -8246 -8323.8 -8291.7 -8309.8 -8345.9 
-8317.6 -8351.8 -8324.7 -8414.4 -8279 -8457.1 -8450.2 -8417.1 -8401.2 
-8374.4 -8407.3 -8341.5 -8401.5 -8490.9 -8381.3 -8402.3 -8348.1 -8418 
-8462.6 -8470.8 -9554.4 -9509.5 -9555.4 -9590.8 -9562.1 -9687.6 -9631.5 
-8563.6 -8538.2 -8671 -9650.2 -9608.2 -9681.9 -9740.7 -9678.4 -9763.8 
-9633.6 -9634 -9634.7 -9643.5 -9631.8 -9676.1 -9635.7 -9659.7 -9619.8 
-9657.2 -9613.1 -9618.1 -9611 -9620.2 -9662.1 -9645.3 -9622 -9640.3 
-8686.9 -8582.7 -8385.4 -8468.6 -8491.9 -8453.6 -8450.4 -8473.8 -8480.4 
-8536.8 -8392.6 -8529.4 -8373.7 -8440.2 -8337.8 -8426.5 -8352.6 -8401.8 
-8463.5 -8425.8 -8502.2 -8469.7 -8797.9 -8763.2 -8956.2 -8880 -9096.1 
-9047.6 -9337.1 -9214.3 -9514.5 -9408.4 -9709.4 -9600.2 -9795.5 -9768.9 
-9711.1 -9700.8 -9791.7 -9511.8 -9581.7 -9328.4 -9435.3 -9172.1 -9257.9 
-8962.5 -9080.6 -8732.1 -8866.7 -9709.6 -9614.2 -8503.9 -8480.4 -8443.3 
-8504.3 -9659.3 -9658 -9720 -9711.5 -9808.2 -9780.8 -9770.3 -9832.8 
-9581.2 -9664 -8585.4 -8532.8 -8496.7 -8501.3 -8427.7 -8488.4 -9453.6 
-9496.9 -8416.3 -8466.3 -9733.3 -9670.8 -9806.8 -9748.2 -9803.3 -9695.5 
-9741.7 -8654.8 -8560.2 -8683 -8498.4 -8582.8 -8484.6 -8566 -8560.3 
-8536.1 -8553.5 -8551.3 -8524 -8553 -8442.2 -8541.8 -9235.1 -9328.1 
-9018.1 -9106 -8892.2 -8942.5 -9656.4 -9696.1 -9679.9 -9706.3 -9743.2 
-9698.4 -9734.4 -9742.7 -9714.3 -9771.4 -9715.1 -9747.5 -8712.5 -8591.8 
-8935.4 -8796.5 -9095.6 -8979.8 -9256.9 -9170.2 -9425.5 -9343.8 -9617 
-9528.8 -8447.6 -8633.1 -8568.7 -8551.6 -9751.4 -9715 -9780.8 -8718.3 
-8648.5 -8804.2 -8637 -8701.7 -8600 -8631.2 -8609.1 -8656.1 -8559.3 
-8634.9 -9758.1 -9807.4 -9834.5 -9837.4 -9608.5 -9677 -9502 -9790.2 
-9803.9 -9724.5 -8743.9 -8725.8 -8604.8 -8619.8 -9752 -9783.6 -8567 
-8608.8 -9795.6 -9803.1 -9762.8 -9817.7 -9782.8 -9772.3 -9762.3 -9808.1 
-9778.8 -9807.7 -8930.1 -8894.3 -9158.4 -9036 -9355 -9261.3 -9533.1 
-9422.3 -9325.9 -9454.3 -9152.3 -9241 -8975.2 -9077.5 -9778.6 -9798.8 
-8703.9 -8712.8 -8918.2 -8811.4 -9796.2 -9821.3 -9776.4 -8825.4 -8766.2 
-8891.5 -9616.9 -9677.1 -9446 -9490.8 -8709.2 -8749.9 -8762.8 -9813.6 
-9761.6 -9068 -8999 -9822.1 -9796.1 -9793.5 -9769.6 -9275.7 -9348.4 
-9226.6 -9164.2 -9820.4 -9779.6 -9800.9 -9774.4 -8563.9 -8628.9 -8625.1 
-9427.7 -9303.9 -9722.7 -9637.5 -9085.9 -9177 -8703.4 -8793.7 -8793.2 
-8710.4 -8769.4 -9796 -9832.7 -9826.1 -9652.8 -9701.6 -8841.7 -8987.7 
-8891.5 -8891.4 -9520.7 -9593 -9599.5 -9683.6 -9467.9 -9502.5 -9372.5 
-8766.8 -8745.8 -8823.9 -8708.7 -8719.3 -9680.4 -9637.6 -9672.7 -9604.4 
-9696.1 -9628.5 -9693.9 -9640.4 -8954.3 -8858.1 -9148.1 -9010.4 -9312.9 
-9267.6 -9186.5 -9296 -8846.9 -8794.4 -9645.9 -8769.6 -9439.1 -9505.8 
-9336.2 -8932.7 -8932.1 -9010.5 -9098 -8862.3 -8840.3 -9466.9 -9523.3 
-9359.5 -8832.2 -8883.7 -8867.5 -9524.6 -9468.8 -9535.3 -9475.4 -9037.2 
-8995 -9228.7 -9132.1 -9482.1 -8970.5 -9385.1 -9327.6 -9361.3 -9301.5 
-9201.8 -9354.7 -9285.4 -9294.8 -9074.9 -9166.8 -8982.7 -8970.4 -9072.3 
-9055.2 -9123.1 -9167.2 -9118.4 57680 58626 57437 53983 33205 
34460 33137 29690 10271 11358 9601.6 6592.3 -6339 -5618.3 
-6463.2 -7923.7 -10718 -10542 -10534 -10669 -11041 -10955 -10935 
-10993 -11145 -11093 -11080 -11124 -11201 -11145 -11130 -11178 
-11192 -11165 -11154 -11152 -11026 -10973 -10932 -10910 -10910 
-11179 -11726 -10894 -11225 -13236 -10784 -11264 -13565 -10751 
-11264 -12961 -10788 -11226 -12461 -10685 -11180 -11817 -10685 
-11177 -11569 -10739 -11181 -11510 -10706 -11188 -11521 -10718 
-11173 -11530 -10737 -11145 -11558 -10777 -11125 -11527 -10785 
-11143 -11497 -10785 -11145 -11513 -10775 -11139 -11559 -10773 
-11114 -11566 -10886 -11088 -11561 -10891 -11077 -11582 -10822 
-11082 -11556 -10778 -11035 -11289 -9700.5 -9858.3 -10046 -10256 
-10480 -10428 -10464 -10559 -10708 -10660 -10660 -10699 -10807 
-10771 -10763 -10775 -10878 -10846 -10833 -10833 -10929 -10901 
-10886 -10873 -10976 -10939 -10924 -10917 -11010 -10978 -10966 
-10947 -10986 -10953 -10936 -10954 -10733 -10681 -10636 -10539 
-11204 -11366 -11368 -11166 -11334 -11341 -11170 -11300 -11328 
-11190 -11299 -11336 -10558 -11003 -10949 -10671 -10991 -10979 
-10672 -10937 -10954 -10620 -10864 -10842 45598 47502 47979 
46792 18098 20899 21480 19378 -5169.9 -2749.5 -2240.9 -4145.2 
-11088 -10952 -10915 -11031 -11305 -11290 -11285 -11285 -11357 
-11323 -11319 -11329 -11364 -11323 -11319 -11329 -11365 -11333 
-11330 -11341 -11328 -11309 -11306 -11319 -11101 -11097 -11084 
-11067 -10192 -10087 -10083 -10177 -10407 -10335 -10331 -10404 
-10560 -10509 -10509 -10567 -10657 -10623 -10624 -10664 -10704 
-10684 -10685 -10711 -10740 -10726 -10727 -10749 -10774 -10760 
-10763 -10795 -10806 -10790 -10793 -10825 -10818 -10798 -10798 
-10807 -10471 -10438 -10434 -10445 -11134 -11342 -11638 -11146 
-11374 -12007 -11148 -11395 -11964 -11164 -11408 -11927 -11184 
-11419 -11890 -11186 -11425 -11944 -11200 -11429 -11955 -11195 
-11424 -11980 -11194 -11425 -11979 -11199 -11424 -11956 -11198 
-11424 -11959 -11189 -11425 -11980 -11189 -11432 -11998 -11188 
-11426 -11958 -11181 -11425 -12016 -11172 -11423 -12029 -11162 
-11415 -11974 -11141 -11408 -12130 -11143 -11394 -12238 -11126 