# vtk DataFile Version 4.2
vtk output
ASCII
DATASET UNSTRUCTURED_GRID
POINTS 8741 float
-46.3142 -42.497 28.6327 -46.3142 -30.497 28.6319 -46.3141 30.503 28.6279 
-46.3141 42.503 28.6271 -42.3147 46.503 28.6953 -30.3165 46.503 28.9005 
30.6746 46.503 29.9436 42.6729 46.503 30.1488 46.6723 42.503 30.2174 
46.6723 30.503 30.2182 46.6722 -30.497 30.2223 46.6722 -42.497 30.223 
42.6728 -46.497 30.1549 30.6745 -46.497 29.9497 -42.3148 -46.497 28.7014 
-30.3165 -46.497 28.9066 30.8371 46.5024 20.445 31.1962 46.501 -0.55196 
43.1944 46.501 -0.34676 42.8353 46.5024 20.6502 -30.154 46.5024 19.4018 
-42.1522 46.5024 19.1966 -41.7931 46.501 -1.80028 -29.7949 46.501 -1.59508 
46.8347 42.5024 20.7188 -46.1517 42.5024 19.1285 47.1938 42.501 -0.27809 
47.1938 30.501 -0.2773 46.8347 30.5024 20.7196 -46.1517 30.5024 19.1293 
-45.7926 30.501 -1.86763 -45.7925 42.501 -1.86842 46.8346 -30.4976 20.7236 
-46.1517 -30.4976 19.1333 47.1938 -30.499 -0.27328 47.1937 -42.499 -0.27249 
46.8346 -42.4976 20.7244 -46.1518 -42.4976 19.1341 -45.7926 -42.499 -1.86282 
-45.7926 -30.499 -1.86361 42.8352 -46.4976 20.6563 -42.1523 -46.4976 19.2028 
43.1943 -46.499 -0.34063 31.1961 -46.499 -0.54583 30.837 -46.4976 20.4511 
-30.1541 -46.4976 19.408 -29.795 -46.499 -1.58895 -41.7932 -46.499 -1.79415 
-30.1541 -26.4976 19.4067 -26.1547 -30.4976 19.4753 -26.1547 -42.4976 19.4761 
26.8376 -42.4976 20.3824 26.8376 -30.4976 20.3816 30.837 -26.4976 20.4498 
42.8352 -26.4976 20.655 42.8353 26.5024 20.6515 30.837 26.5024 20.4463 
26.8376 30.5024 20.3776 26.8377 42.5024 20.3768 -26.1546 42.5024 19.4705 
-26.1546 30.5024 19.4713 -30.154 26.5024 19.4032 -42.1523 26.5024 19.198 
-42.1523 -26.4976 19.2015 56.8936 30.4983 -41.1174 56.8936 46.4983 -41.1185 
47.895 55.4983 -41.2729 31.8973 55.4983 -41.5466 31.8973 46.4983 -41.546 
27.8979 42.4983 -41.6141 27.8979 41.6983 -41.614 1.40175 41.6983 -42.0672 
1.40174 31.2983 -42.0665 27.8979 31.2983 -41.6133 27.8979 30.4983 -41.6133 
31.8973 26.4983 -41.5446 32.6972 26.4983 -41.531 32.6971 -0.0017 -41.5292 
43.0956 -0.0017 -41.3514 43.0956 26.4983 -41.3531 47.8949 30.4983 -41.2713 
43.8955 26.4983 -41.3394 43.5877 46.4995 -23.3434 31.5895 46.4995 -23.5486 
31.5895 55.4995 -23.5492 47.5872 55.4995 -23.2756 56.5858 46.4995 -23.1211 
56.5858 30.4995 -23.12 47.5871 42.4995 -23.2747 47.5871 30.4995 -23.2739 
31.1962 46.501 -0.55196 27.1968 42.501 -0.6201 27.1968 30.501 -0.61931 
31.1962 26.501 -0.55064 43.1944 26.501 -0.34544 47.1938 30.501 -0.2773 
43.1944 46.501 -0.34676 47.1938 42.501 -0.27809 27.6927 31.2991 -29.6151 
27.6927 41.6991 -29.6158 1.19654 31.2991 -30.0683 1.19655 41.6991 -30.069 
42.8904 26.4991 -29.3549 32.492 26.4991 -29.5327 42.8904 -0.00091 -29.3531 
32.4919 -0.00091 -29.531 27.1968 42.501 -0.6201 27.1968 30.501 -0.61931 
31.1962 26.501 -0.55064 43.1944 26.501 -0.34544 -40.2922 26.4983 -42.7793 
-40.2922 -0.0017 -42.7775 -29.8937 -0.0017 -42.5997 -29.8937 26.4983 -42.6014 
-29.0938 26.4983 -42.5877 -25.0944 30.4983 -42.5196 -25.0944 31.2983 -42.5197 
1.40174 31.2983 -42.0665 1.40175 41.6983 -42.0672 -25.0944 41.6983 -42.5204 
-25.0944 42.4983 -42.5204 -29.0938 46.4983 -42.5891 -29.0938 55.4983 -42.5897 
-45.0914 55.4983 -42.8633 -54.0901 46.4983 -43.0166 -54.0901 30.4983 -43.0155 
-45.0914 30.4983 -42.8616 -41.092 26.4983 -42.793 -54.3979 30.4995 -25.0182 
-54.3979 46.4995 -25.0192 -45.3992 55.4995 -24.8659 -29.4016 55.4995 -24.5923 
-29.4016 46.4995 -24.5917 -41.3998 46.4995 -24.7969 -45.3993 42.4995 -24.865 
-45.3993 30.4995 -24.8643 -29.7949 46.501 -1.59508 -25.7955 42.501 -1.52641 
-25.7955 30.501 -1.52562 -29.7949 26.501 -1.59376 -41.7932 26.501 -1.79896 
-45.7926 30.501 -1.86763 -41.7931 46.501 -1.80028 -45.7925 42.501 -1.86842 
-25.2996 31.2991 -30.5214 -25.2996 41.6991 -30.5221 1.19655 41.6991 -30.069 
1.19654 31.2991 -30.0683 -40.4974 26.4991 -30.781 -30.0989 26.4991 -30.6032 
-30.0989 -0.00091 -30.6014 -40.4974 -0.00091 -30.7793 -25.7955 42.501 -1.52641 
-25.7955 30.501 -1.52562 -29.7949 26.501 -1.59376 -41.7932 26.501 -1.79896 
43.0956 -26.5017 -41.3496 43.0956 -0.0017 -41.3514 32.6971 -0.0017 -41.5292 
32.6971 -26.5017 -41.5275 31.8972 -26.5017 -41.5411 27.8978 -30.5017 -41.6093 
27.8978 -31.3017 -41.6092 1.40167 -31.3017 -42.0624 1.40166 -41.7017 -42.0617 
27.8978 -41.7017 -41.6085 27.8978 -42.5017 -41.6085 31.8972 -46.5017 -41.5398 
31.8972 -55.5017 -41.5392 47.8948 -55.5017 -41.2656 56.8935 -46.5017 -41.1123 
56.8936 -30.5017 -41.1134 47.8949 -30.5017 -41.2673 43.8955 -26.5017 -41.3359 
56.5858 -30.5005 -23.116 56.5857 -46.5005 -23.115 47.587 -55.5005 -23.2683 
31.5894 -55.5005 -23.5419 31.5894 -46.5005 -23.5425 43.5876 -46.5005 -23.3373 
47.5871 -42.5005 -23.2691 47.5871 -30.5005 -23.2699 31.1961 -46.499 -0.54583 
27.1967 -42.499 -0.6145 27.1967 -30.499 -0.61529 31.1961 -26.499 -0.54715 
43.1944 -26.499 -0.34195 47.1938 -30.499 -0.27328 43.1943 -46.499 -0.34063 
47.1937 -42.499 -0.27249 27.6926 -31.3009 -29.611 27.6926 -41.7009 -29.6103 
1.19645 -41.7009 -30.0635 1.19647 -31.3009 -30.0641 42.8904 -26.5009 -29.3514 
32.4919 -26.5009 -29.5292 32.4919 -0.00091 -29.531 42.8904 -0.00091 -29.3531 
27.1967 -42.499 -0.6145 27.1967 -30.499 -0.61529 31.1961 -26.499 -0.54715 
43.1944 -26.499 -0.34195 -41.7932 -26.499 -1.79547 -29.795 -26.499 -1.59027 
-25.7956 -30.499 -1.5216 -25.7956 -42.499 -1.52081 -29.0939 -26.5017 -42.5843 
-41.0921 -26.5017 -42.7895 -40.2922 -26.5017 -42.7758 -40.4974 -26.5009 -30.7775 
-30.0989 -26.5009 -30.5997 -29.8937 -26.5017 -42.5979 -25.0945 -42.5017 -42.5148 
-25.0944 -30.5017 -42.5156 -25.0944 -31.3017 -42.5155 -25.2997 -31.3009 -30.5173 
-25.2997 -41.7009 -30.5166 -25.0945 -41.7017 -42.5149 -45.3993 -42.5005 -24.8594 
-45.3993 -30.5005 -24.8602 -41.3999 -46.5005 -24.7908 -29.4017 -46.5005 -24.5856 
-40.4974 -0.00091 -30.7793 -30.0989 -0.00091 -30.6014 -29.8937 -0.0017 -42.5997 
-40.2922 -0.0017 -42.7775 1.19647 -31.3009 -30.0641 1.19645 -41.7009 -30.0635 
1.40167 -31.3017 -42.0624 1.40166 -41.7017 -42.0617 -29.4017 -55.5005 -24.585 
-45.3994 -55.5005 -24.8586 -54.398 -46.5005 -25.0131 -54.398 -30.5005 -25.0141 
-54.0902 -30.5017 -43.0115 -45.0915 -30.5017 -42.8576 -54.0902 -46.5017 -43.0104 
-29.0939 -46.5017 -42.583 -29.0939 -55.5017 -42.5824 -45.0915 -55.5017 -42.856 
-43.8453 -46.1925 28.6752 -45.1428 -45.3254 28.6529 -46.0098 -44.0277 28.638 
-46.3142 -39.497 28.6325 -46.3142 -36.497 28.6323 -46.3142 -33.497 28.6321 
-46.3142 -27.447 28.6317 -46.3142 -24.397 28.6315 -46.3142 -21.347 28.6313 
-46.3142 -18.297 28.6311 -46.3142 -15.247 28.6309 -46.3142 -12.197 28.6307 
-46.3142 -9.14699 28.6305 -46.3142 -6.09699 28.6303 -46.3142 -3.04699 28.6301 
-46.3142 0.00301 28.6299 -46.3142 3.05301 28.6297 -46.3142 6.10301 28.6295 
-46.3142 9.15301 28.6293 -46.3142 12.203 28.6291 -46.3141 15.253 28.6289 
-46.3141 18.303 28.6287 -46.3141 21.353 28.6285 -46.3141 24.403 28.6283 
-46.3141 27.453 28.6281 -46.3141 33.503 28.6277 -46.3141 36.503 28.6275 
-46.3141 39.503 28.6273 -46.0097 44.0337 28.6322 -45.1427 45.3314 28.647 
-43.8452 46.1985 28.6691 -39.3151 46.503 28.7466 -36.3156 46.503 28.7979 
-33.316 46.503 28.8492 -27.2669 46.503 28.9526 -24.2173 46.503 29.0048 
-21.1678 46.503 29.0569 -18.1182 46.503 29.1091 -15.0687 46.503 29.1612 
-12.0191 46.503 29.2134 -8.96957 46.503 29.2656 -5.92002 46.503 29.3177 
-2.87047 46.503 29.3699 0.17909 46.503 29.422 3.22864 46.503 29.4742 
6.27819 46.503 29.5263 9.32775 46.503 29.5785 12.3773 46.503 29.6306 
15.4269 46.503 29.6828 18.4764 46.503 29.735 21.526 46.503 29.7871 
24.5755 46.503 29.8393 27.6251 46.503 29.8914 33.6742 46.503 29.9949 
36.6738 46.503 30.0462 39.6733 46.503 30.0975 44.2034 46.1985 30.175 
45.5009 45.3314 30.1972 46.3679 44.0337 30.2121 46.6723 39.503 30.2176 
46.6723 36.503 30.2178 46.6723 33.503 30.218 46.6723 27.453 30.2184 
46.6723 24.403 30.2186 46.6722 21.353 30.2188 46.6722 18.303 30.219 
46.6722 15.253 30.2192 46.6722 12.203 30.2194 46.6722 9.15301 30.2197 
46.6722 6.10301 30.2199 46.6722 3.05301 30.2201 46.6722 0.00301 30.2202 
46.6722 -3.04699 30.2204 46.6722 -6.09699 30.2206 46.6722 -9.14699 30.2208 
46.6722 -12.197 30.2211 46.6722 -15.247 30.2213 46.6722 -18.297 30.2215 
46.6722 -21.347 30.2217 46.6722 -24.397 30.2219 46.6722 -27.447 30.2221 
46.6722 -33.497 30.2225 46.6722 -36.497 30.2227 46.6722 -39.497 30.2229 
46.3677 -44.0277 30.2179 45.5008 -45.3254 30.2032 44.2033 -46.1925 30.1811 
39.6732 -46.497 30.1036 36.6736 -46.497 30.0523 33.6741 -46.497 30.001 
27.625 -46.497 29.8976 24.5754 -46.497 29.8454 21.5259 -46.497 29.7932 
18.4763 -46.497 29.7411 15.4268 -46.497 29.6889 12.3772 -46.497 29.6368 
9.32764 -46.497 29.5846 6.27809 -46.497 29.5325 3.22854 -46.497 29.4803 
0.17898 -46.497 29.4282 -2.87057 -46.497 29.376 -5.92013 -46.497 29.3238 
-8.96968 -46.497 29.2717 -12.0192 -46.497 29.2195 -15.0688 -46.497 29.1674 
-18.1183 -46.497 29.1152 -21.1679 -46.497 29.0631 -24.2174 -46.497 29.0109 
-27.267 -46.497 28.9587 -33.3161 -46.497 28.8553 -36.3157 -46.497 28.804 
-39.3152 -46.497 28.7527 30.7829 46.5026 23.6112 30.7288 46.5028 26.7774 
31.1449 46.5012 2.4476 31.0936 46.5014 5.44716 31.0423 46.5016 8.44672 
30.991 46.5018 11.4463 30.9397 46.502 14.4459 30.8884 46.5022 17.4454 
34.1957 46.501 -0.50066 37.1953 46.501 -0.44936 40.1949 46.501 -0.39806 
43.1431 46.5012 2.65281 43.0918 46.5014 5.65237 43.0405 46.5016 8.65193 
42.9892 46.5018 11.6515 42.9379 46.502 14.651 42.8866 46.5022 17.6506 
42.7812 46.5026 23.8164 42.727 46.5028 26.9826 -30.2082 46.5026 22.5681 
-30.2623 46.5028 25.7343 27.7875 46.5024 20.3928 24.738 46.5024 20.3407 
21.6884 46.5024 20.2885 18.6389 46.5024 20.2363 15.5893 46.5024 20.1842 
12.5398 46.5024 20.132 9.4902 46.5024 20.0799 6.44065 46.5024 20.0277 
3.39109 46.5024 19.9756 0.34154 46.5024 19.9234 -2.70801 46.5024 19.8713 
-5.75757 46.5024 19.8191 -8.80712 46.5024 19.7669 -11.8567 46.5024 19.7148 
-14.9062 46.5024 19.6626 -17.9558 46.5024 19.6105 -21.0053 46.5024 19.5583 
-24.0549 46.5024 19.5062 -27.1044 46.5024 19.454 -42.2064 46.5026 22.3629 
[...]
CELL_DATA 12638
SCALARS cell_scalars float
LOOKUP_TABLE default
-10429 -10107 -10496 -10540 -10137 -10544 -10519 -10023 -10329 
-10030 -10413 -10136 -10455 -10131 -10399 -10037 -10396 -9991.6 
-10337 -9882.5 -10226 -9775.2 -10105 -9687.7 -9957.2 -9478.8 -9772.9 
-9327.9 -9685.3 -9163.3 -9339.9 -8895.4 -9144.5 -8589.3 -9072 -8552.9 
-9325.9 -8774.6 -9437 -8807.6 -9445.6 -8949 -9488.6 -9148.4 -9716.4 
-9335.9 -9937.2 -9507.7 -10082 -9714.7 -10226 -9870.9 -10367 -10041 
-10476 -10213 -10621 -10360 -10663 -10335 -10640 -10319 -10710 
-10439 -10870 -10705 -10383 -10751 -10754 -10385 -10630 -10330 
-10600 -10334 -10608 -10322 -10618 -10355 -10617 -10324 -10609 
-10333 -10622 -10315 -10601 -10292 -10631 -10286 -10619 -10296 
-10603 -10312 -10611 -10311 -10603 -10286 -10625 -10301 -10612 
-10304 -10633 -10322 -10633 -10320 -10615 -10313 -10621 -10315 
-10633 -10334 -10644 -10332 -10618 -10343 -10647 -10362 -10617 
-10329 -10579 -10299 -10646 -10307 -10563 -10269 -10589 -10378 
-10762 -10753 -10392 -10717 -10872 -10478 -10767 -10363 -10681 
-10356 -10659 -10331 -10609 -10209 -10476 -10068 -10370 -9882.4 
-10193 -9697.5 -10067 -9503.6 -9912.3 -9320.4 -9694.5 -9138.9 -9577.4 
-9013.7 -9466.5 -8803.8 -9489.4 -8725.9 -9298.8 -8425.1 -8963.1 -8652.9 
-9129.8 -8940.4 -9386.2 -9138.6 -9748.1 -9351.6 -9786 -9502.5 -9961.9 
-9708.3 -10091 -9812.2 -10223 -9902.3 -10353 -9998.3 -10408 -10036 
-10397 -10086 -10416 -10044 -10376 -9995.4 -10308 -9970.5 -10472 
-10455 -10071 -10401 -10504 -9985.3 -10406 -9889.6 -10367 -9852.4 
-10316 -9803.3 -10290 -9777.8 -10291 -9778.1 -10256 -9793.2 -10227 
-9770.3 -10303 -9821.3 -10279 -9821.3 -10284 -9821.1 -10281 -9767.3 
-10271 -9804.3 -10306 -9820.7 -10296 -9814.8 -10285 -9817.7 -10288 
-9813.5 -10313 -9835.8 -10256 -9785.4 -10312 -9826 -10296 -9819.2 
-10300 -9818.5 -10313 -9823.1 -10302 -9771.7 -10237 -9820.7 -10312 
-9831.7 -10300 -9824.1 -10336 -9871.9 -9776.1 -9642.5 -9558.6 -9638.8 
-9510.7 -9488.8 -10039 -10087 -10098 -10032 -9970.5 -10067 -10115 
-10093 -10059 -10007 -9691.8 -9604 -9804.7 -9749.6 -9795.8 -9793.2 
-9745.2 -9773.1 -9661 -9698.5 -9606 -9621.4 -9483.7 -9545 -9358.7 
-9417.4 -9242.8 -9262.4 -9057.7 -9119.5 -8924.2 -8943.4 -8647.9 -8734 
-8367.8 -8508.5 -8424.4 -8420.4 -8479.1 -8446.8 -8583.4 -8551.8 -8744 
-8662.1 -8891.4 -8821.3 -9072 -8971.8 -9229.1 -9142.3 -9431.5 -9308.5 
-9608.2 -9458.9 -9792.2 -9639.7 -9944.7 -9833.7 -10071 -9980.2 -10104 
-10045 -9679.4 -9688.2 -9635.7 -9499.1 -9465.6 -9490.1 -9489.9 -9465.6 
-9499.7 -9485.4 -9466.4 -9484.1 -9497.6 -9522.8 -9488.3 -9522.4 -9539.5 
-9552.1 -9517.7 -9540.7 -9560.3 -9538.1 -9521.2 -9527.1 -9538.1 -9535.2 
-9546.8 -9536.5 -9539.6 -9534.8 -9533.5 -9540.3 -9529.1 -9531.3 -9547.1 
-9517.7 -9531.6 -9512.6 -9533 -9514.9 -9519.9 -9510.5 -9524.2 -9485.1 
-9512 -9455.1 -9500.6 -9502 -9479.4 -9513.5 -9448.6 -9516 -9486 
-10069 -9967.7 -9986.4 -9934.4 -10024 -9905.8 -9985.7 -9952 -10050 
-9944.7 -10057 -10046 -10073 -10012 -10052 -10053 -10077 -10011 
-10052 -10050 -10077 -10020 -10069 -10012 -10068 -10031 -10079 
-10032 -10074 -10027 -10077 -10031 -10073 -10036 -10082 -10032 
-10074 -10050 -10055 -10041 -10040 -9992.9 -10016 -9976.2 -10001 
-9931.8 -9987.6 -9919.5 -9961.9 -9954.7 -10022 -9914.6 -10045 -9978.8 
-10048 -9968.3 -10067 -10018 -9952.5 -10011 -9802.3 -9836.7 -9611.9 
-9677.4 -9453.6 -9493.4 -9239 -9323.9 -9076.2 -9174 -8908.7 -8969.7 
-8736.5 -8824 -8595.9 -8657.8 -8482 -8559.6 -8411.9 -8475.1 -8358.4 
-8373.7 -8631.2 -8487.7 -8888.1 -8695.9 -9052.8 -8892.4 -9201.5 -9059.8 
-9350.7 -9251.1 -9473.8 -9381.1 -9583.7 -9559.9 -9671.2 -9621.2 -9782.5 
-9711.8 -9870.8 -9808.8 -9852 -9802.2 -9761.8 -9764.9 -9908.6 -9545 
-9963 -9946.8 -9644.3 -10017 -9558 -9507 -9556.4 -9699.1 -9646.1 
-9882.4 -9905.9 -9958.9 -9941.4 -9798 -9772.4 -10019 -9975.8 -9489.5 
-9498.6 -9757.4 -9751.3 -9936.9 -9994.1 -9726.6 -9709.9 -9666.4 -9661.9 
-9568.9 -9599.6 -9414.2 -9446.3 -9295.8 -9325.9 -9159.6 -9182.7 -8935.5 
-9085.1 -8727.7 -8877.7 -8522.8 -8656.6 -8418.4 -8402.9 -8460.9 -8441.5 
-8552.9 -8432.9 -8648.9 -8521.5 -8777 -8659.5 -8904.8 -8821.4 -9086.7 
-8977.4 -9256.8 -9159.6 -9381 -9295.8 -9574.1 -9484.1 -9781.9 -9651.9 
-9925.6 -9841.6 -9762.8 -9831 -9614.8 -9666 -9439.7 -9510.5 -9267.3 
-9337.5 -9106.4 -9171.9 -8934.8 -8993.5 -8777 -8825.4 -8640.1 -8682.4 
-8548 -8560.9 -8462.6 -8475.1 -8345.7 -8331.9 -8469.2 -8446.1 -8724.1 
-8640.7 -8948.8 -8861.2 -9091.3 -9062.8 -9279.4 -9216.4 -9424.7 -9374.1 
-9595.7 -9493.6 -9608.4 -9610.3 -9632.2 -9585 -9729.4 -9702.8 -9814.7 
-9742.9 -10023 -10010 -9714 -9767 -9532 -9545.7 -9555.4 -9571.6 
-9510.1 -9582.3 -9618.3 -9611.1 -9562.9 -9650.6 -9594.4 -9635.5 -9580 
-9616.4 -9581.5 -9642.2 -9586.1 -9643.3 -9578 -9640.5 -9595.9 -9646 
-9584.1 -9637.3 -9583.2 -9641.6 -9591.7 -9638.9 -9592.7 -9639.1 -9589.2 
-9648.3 -9572.7 -9639 -9582.7 -9640.1 -9609.6 -9651.8 -9573.6 -9640.5 
-9597.8 -9626.6 -9613 -9659.8 -9538 -9632.3 -9529.1 -9594.3 -9902.7 
-9900.3 -9872.1 -9897 -9962.9 -9920.2 -9930.1 -9951.3 -9963.5 -9981.9 
-9973 -9938.7 -9990.3 -10023 -10024 -10024 -10021 -10010 -10014 
-10015 -10015 -10029 -9997.2 -10029 -9983 -10015 -9981.3 -10025 
-9977.4 -10002 -9989.5 -9985 -9967.1 -9961.7 -9977.8 -9974.6 -9959.4 
-9973.8 -9920.4 -9977.3 -9972.1 -9959.8 -9975.7 -10004 -9929.2 -9965 
-9919.4 -9913.9 -9915.3 -9911.9 -9920.5 -9645.3 -9506.3 -9521.6 -9599.5 
-9648.8 -9608.6 -9961.3 -9954.1 -9928.4 -10000 -9946.7 -9955.5 -9942.7 
-9940.3 -9956.8 -9978.8 -9997.8 -9757.8 -9727.7 -9652 -9713 -9710.3 
-9788.9 -9654.1 -9723.2 -9802.7 -9869.9 -9686.3 -9692.7 -9935.9 -9941 
-9571.6 -9593.1 -9641.2 -9712.2 -9561.3 -9524.8 -9620.8 -9597.2 -9454.2 
-9542.6 -9369.7 -9420.9 -9268.9 -9375.6 -9138.7 -9208.4 -8966.8 -9070.1 
-8800.5 -8893.1 -8561.7 -8655.3 -8301.3 -8362.1 -8364.7 -8333.2 -8465.9 
-8443.9 -8629.6 -8583 -8782.4 -8694.5 -8949.1 -8867.9 -9104 -9043.6 
-9308.8 -9226.1 -9536.4 -9436.1 -9644.2 -9586.4 -9793.7 -9720.1 -9979.1 
-9921.6 -9480.1 -9566.4 -9294.9 -9385.8 -9117.9 -9227.4 -8948 -9035.9 
-8799.7 -8894.4 -8618.5 -8722.6 -8473.9 -8560.3 -8377 -8425.2 -8260.1 
-8340 -8495.7 -8394 -8741.1 -8599.3 -8939.7 -8888.1 -9152.2 -9048.8 
-9308.7 -9185.7 -9395 -9352.8 -9451.4 -9392.8 -9548.7 -9462 -9638.1 
-9620.7 -9689.9 -9660.4 -9712.8 -9690.6 -9746.8 -9715.6 -9697.9 -9713.9 
-9732.8 -9758.5 -9798.7 -9799.4 -9737.8 -9823.7 -9740.3 -9782.7 -9746.4 
-9785.3 -9753.1 -9750.5 -9736.7 -9765.8 -9757.8 -9782.1 -9753.1 -9788.3 
-9765.9 -9745 -9752.4 -9772.6 -9761.4 -9760.2 -9788.1 -9771.9 -9797.2 
-9797.4 -9809.8 -9818.2 -9827.2 -9844.6 -9770.4 -9847.3 -9718.5 -9740.9 
-9719 -9746.5 -9688.9 -9752.1 -9977.2 -9973.1 -10034 -9984.7 -9995.1 
-10040 -10006 -10024 -9983.8 -9991.9 -9991.4 -10009 -9992.1 -10026 
-10009 -10023 -9992.1 -10004 -9993.6 -10012 -10016 -10018 -10001 
-10032 -10014 -10053 -10034 -10052 -10032 -10074 -10035 -10055 
-10057 -10067 -10017 -10058 -9996.8 -9986 -9944.2 -9983.5 -9952.2 
-9937.2 -9965.1 -9926.2 -9534.8 -9569.4 -9655.1 -9943.6 -9935.1 -9704.3 
-9644.9 -9736.7 -9968.7 -9998.7 -9759.3 -9770.9 -9984.3 -10007 -9977.6 
-9977.3 -9963.8 -9765.7 -9751.1 -9735.6 -9701.4 -9723.2 -9668.1 -9704.6 
-9629.9 -9653.9 -9887.1 -9938.4 -9734.4 -9792.1 -9597 -9644.7 -9671.8 
-9716.2 -9971 -9979.9 -9897.1 -9951.8 -9778.5 -9759.9 -10013 -10009 
-9670.7 -9669 -9743 -9788.7 -9752.1 -9744 -9534.6 -9545.8 -9402.2 
-9490.6 -10011 -10041 -10012 -10032 -10055 -10023 -10091 -10047 
-10138 -10146 -10126 -10148 -10116 -10126 -10114 -10109 -10085 
-10107 -10084 -10103 -10078 -10096 -10082 -10101 -10082 -10096 
-10086 -10066 -10065 -10070 -9815.2 -9743 -9863.5 -9847.6 -9836.9 
-9828.6 -9841.8 -9824.1 -9857.4 -9847 -9869.8 -9863 -9855.2 -9858.6 
-9856.1 -9836.9 -9787.1 -9814.8 -9784.5 -9794 -9780.4 -9807.1 -9776 
-9796.7 -9773.1 -9798.2 -9805.5 -9776.1 -9782.1 -9779.5 -9561.7 -9651.9 
-9395.6 -9475.6 -9281.5 -9335.6 -9117.4 -9178 -8962.3 -9029.5 -8793 
-8895.4 -8662.4 -8778.1 -8521.1 -8601.1 -8344.7 -8461.6 -8314.6 -8340.8 
-8586.6 -8523.1 -8794.7 -8784.1 -9016.8 -8869.5 -9207.7 -9057 -9351.4 
-9245.7 -9489.6 -9419.9 -9613.7 -9631.4 -9533.2 -9600.6 -9421.3 -9539.2 
-9194.6 -9334.7 -9072.9 -9125.3 -8862.5 -9014.2 -8790.5 -8756.9 -8573.2 
-8662 -8446.1 -8504.5 -8393.2 -8370.8 -8465 -8445.2 -8631.8 -8574.8 
-8807 -8740.6 -8938.4 -8895.4 -9117.2 -9037.4 -9284.3 -9210.5 -10099 
-10107 -9823.5 -9784.3 -10059 -10090 -9846.2 -9829.5 -10020 -10042 
-9793.2 -9789.7 -9981.9 -10048 -9749.5 -9764.1 -9485.8 -9337.6 -9721.3 
-9990.2 -9943.2 -10022 -9720.9 -9722.2 -9707 -9686.3 -9684.3 -9726.5 
-9909.9 -9934.5 -9822.6 -9984.2 -9694.4 -9669.2 -9657.4 -9674.6 -9590.4 
-9807.7 -9891.8 -9673.6 -9695.2 -9489.6 -9576.7 -9736.3 -9739.5 -10046 
-10023 -9756.8 -9753 -9800.4 -9756.2 -9803 -9788.2 -9803.8 -9751.2 
-9810.5 -9797.8 -9823.9 -9770.9 -9811.1 -9825.4 -9809.8 -9797.5 -9814.4 
-9805.4 -9815.5 -9792.1 -9810.7 -9800.9 -9784.3 -9748.3 -9796.9 -9759.8 
-9757 -9734 -9849.8 -9801.3 -9788.4 -9754.2 -9743.1 -9738.6 -9759.2 
-9723.9 -10041 -9981 -10061 -9975.4 -10013 -9983.4 -10012 -9966.1 
-9994.5 -9968.7 -10013 -9967.3 -10030 -9969.2 -10012 -9991.8 -10022 
-9989.2 -10033 -9990.8 -10058 -9990.8 -10079 -10041 -10094 -10031 
-10097 -10019 -9986 -9976.7 -9972.2 -9950.1 -9987.4 -9925.1 -10007 
-9931.3 -9678.5 -9759.6 -9529.4 -9611.7 -9290.8 -9426.4 -9125.1 -9221.2 
-8947.3 -9046.5 -8765.7 -8861.8 -8640.9 -8689.3 -8548.8 -8556.3 -8517.1 
-8487.3 -8452.2 -8487.2 -8369 -8353.3 -8663.6 -8496.4 -8886.4 -8799.9 
-8975.8 -8961.3 -9185.4 -9089 -9335.9 -9306.8 -9655.5 -9668.8 -9550.2 
-9544 -9435.9 -9488.8 -9419.2 -9387.1 -9309.3 -9333.3 -9134.3 -9220.9 
-9020.8 -9090.3 -8685 -8851.2 -8419.3 -8556.3 -8489.5 -8411.6 -8529.3 
-8485.6 -8603.2 -8524.8 -8646 -8604 -8778.8 -8714.5 -8935.1 -8847.7 
-9137.1 -9016.8 -9919.3 -9688.1 -9968 -9754.6 -9828.3 -9741.2 -9701.6 
-9638.8 -9318.7 -9396.6 -9188.7 -9414.8 -9472.1 -9571 -9509.6 -9718.9 
-9697.9 -9642.1 -9876.3 -9832.4 -9740.4 -9562.1 -9662.3 -9710.3 -9681.4 
-9756.4 -9694 -9755.6 -9721.8 -9745.2 -9746 -9697.5 -9725.4 -9749.6 
-9713.2 -9713.8 -9653.5 -9725.3 -9666.8 -9714.2 -9666.5 -9715.4 -9654 
-9673.7 -9673 -9699.8 -9676 -9733.9 -9724.5 -9741.1 -9716.7 -9685.3 
-9703.4 -9704.7 -9695.4 -9687.2 -9716.6 -9861.9 -9815.6 -9886.3 -9821.9 
-9900.7 -9823.7 -9898.3 -9836.2 -9919.8 -9843.4 -9897 -9869.4 -9920.8 
-9857 -9907.2 -9854.2 -9917.6 -9841.7 -9887.1 -9825.3 -9868.9 -9823.9 
-9865.8 -9788.4 -9876.1 -9811.4 -9890.8 -9852.3 -9915.2 -9863.1 -9857.1 
-9852.3 -9868.5 -9790.1 -9589.9 -9682.5 -9451.9 -9501.2 -9275 -9349.1 
-9095.6 -9194 -8940.2 -9013.1 -8746.3 -8858.5 -8614.1 -8699.7 -8484.5 
-8569.9 -8333.2 -8396.5 -8330.7 -8313 -8672.7 -8614.3 -8964 -8907.5 
-9072 -9066.9 -9218 -9159.9 -9317.5 -9284.6 -9639.9 -9688 -9655.2 
-9551.3 -9571.6 -9452.1 -9494.3 -9231.2 -9367.2 -9100.6 -9190.3 -9031.2 
-9070.3 -8899 -8939.8 -8795 -8858.9 -8422 -8644.6 -8311.3 -8292.4 
-8448.3 -8387.6 -8601.5 -8510 -8714.6 -8620.1 -8871.2 -8807.3 -9031.2 
-8988 -9670 -9675 -9799.4 -9683.4 -9568.6 -9603.9 -9653.7 -9634.5 
-9612.2 -9618.2 -9613.3 -9670.3 -9640.6 -9727.9 -9650.1 -9690.1 -9663.6 
-9409.9 -9475.1 -9199.5 -9312.5 -9138.9 -9680.5 -9642.7 -9653.6 -9653.9 
-9654 -9688.3 -9692.2 -9639.3 -9703.9 -9658.8 -9688 -9653.7 -9656 
-9665.5 -9647.8 -9678.2 -9628.2 -9656 -9627.7 -9650.9 -9676.9 -9636.7 
-9390.9 -9419.6 -9512.1 -9489.2 -9610.8 -9623.7 -9626.1 -9590.6 -9636.9 
-9600.6 -9508.1 -9613.8 -9703.6 -9645.3 -9675.1 -9644.9 -9701.7 -9630.1 
-9680.5 -9639.2 -9744.3 -9641.3 -9722.4 -9698.7 -9703.2 -9678 -9707.4 
-9652.9 -9688.1 -9620.4 -9699.5 -9625.8 -9688.8 -9605.8 -9686.5 -9613.1 
-9664.8 -9631.6 -9719.2 -9630.2 -9712.4 -9674.7 -9690.3 -9647.8 -9340.1 
-9433.8 -9131.6 -9261.5 -8941.1 -9031.9 -8831.2 -8875.8 -8722.3 -8773.8 
-8595.5 -8647.3 -8497.6 -8522.1 -8444 -8487 -8492.1 -8448.9 -8687.5 
-8578.6 -8913.2 -8790.4 -9093.4 -8968.5 -9218.1 -9130.6 -9437.9 -9522.1 
-9387.2 -9414.6 -9324.3 -9359.5 -9151.1 -9249.9 -8893.9 -9090.4 -8705.2 
-8887.3 -8438.3 -8594.5 -8422.3 -8432.3 -8500.9 -8464.9 -8558.1 -8560.8 
-8657.2 -8619.6 -8851.1 -8779.1 -8970.7 -8883.9 -9613.2 -9616.4 -9645.6 
-9595.2 -9532.5 -9572.3 -9599.1 -9576 -9577.3 -9542.5 -9608.7 -9479.3 
-9575.8 -9535.9 -9424 -9565.4 -9413.1 -9489.7 -9364 -9416.8 -9378.7 
-9231.8 -9340.1 -9294.6 -9375.9 -9167.9 -9234 -9069.4 -9406.7 -9489.4 
-9565.6 -9517.6 -9579.5 -9521.4 -9569 -9532 -9527.9 -9489.3 -9571.5 
-9478.6 -9585.5 -9507.6 -9560.2 -9516.4 -9566.7 -9526.3 -9553.8 -9531.6 
-9569.5 -9533.6 -9539 -9533 -9550.9 -9504.6 -9524.7 -9478.5 -9537.4 
-9486.7 -9061 -9164.6 -8909.2 -8987.4 -8814 -8854.5 -8594.6 -8674.3 
-8445.7 -8469.2 -8439.7 -8424.7 -8477.8 -8416.3 -8599 -8564.4 -8859 
-8702.3 -8999.9 -9003.4 -9196.7 -9155.7 -9413.1 -9388.7 -9216.4 -9295.2 
-9135 -9164.9 -8959.1 -9089.9 -8685.3 -8910.4 -8449.2 -8595.8 -8389.4 
-8349.7 -8473.1 -8403.7 -8548.5 -8483.1 -8691.5 -8633.2 -8847 -8760.6 
-9574.5 -9580.6 -9610.9 -9594.7 -9553.5 -9578.8 -9569.4 -9487.6 -9577.2 
-9537.8 -9627.6 -9549.5 -9640.8 -9616.2 -9662.6 -9596.5 -9627.8 -9627.1 
-9586.1 -9632 -9621.5 -9585.8 -9629.3 -9599.6 -9550.3 -9458.6 -9551.9 
-9505.5 -9512.9 -9329.6 -9411.3 -9166 -9196.4 -9457.5 -9449.1 -9402.8 
-9346.4 -9427.2 -9006.4 -9081.9 -9448.9 -9360.8 -9287.8 -9341.9 -9412.4 
-9380.2 -8829 -8877.5 -9237.1 -9276.8 -9394.8 -9343.1 -9474 -9479.9 
-9382.7 -9367.7 -9364.1 -9322.1 -9355.2 -9310.9 -9370.3 -9310.1 -9389.2 
-9336.8 -9397.2 -9307.2 -9408.7 -9336.4 -9401.9 -9333.3 -9423.6 -9343.6 
-9388.2 -9371.5 -9239 -9303 -9412.7 -9327 -9512.2 -9481.5 -9521.6 
-9556.2 -9536.5 -9592.4 -8699.9 -8761.5 -8601.4 -8709.2 -8484.1 -8525 
-8368.5 -8438.8 -8541.8 -8258.7 -8837.9 -8676.7 -9077.7 -8954.3 -9183.5 
-9125.3 -8962.5 -9098.3 -8892.8 -9009 -8559.8 -8500.3 -8444.2 -8515.9 
-8446.8 -8480.8 -8573 -8533.3 -8698.1 -8672.2 -8833.2 -8773.9 -8910.9 
-8989.9 -9221.1 -9100.9 -9545.5 -9525.2 -9526.3 -9499.7 -9512.3 -9520.7 
-9482.3 -9480.7 -9426.5 -9490.8 -9442.4 -9429.1 -9420.7 -9478.1 -9493.8 
-9431.8 -9535.7 -9444.4 -9510.1 -9474.1 -9277.8 -9471.6 -9260.2 -9183.8 
-9274.2 -9031.2 -9102.3 -8870.1 -9347.9 -9270.7 -9307.4 -9098.1 -9191.7 
-8958.4 -9009.8 -8901.7 -9491.3 -9439 -9346.1 -9315.5 -9282.7 -9291.7 
-9329.6 -9446.8 -9432.3 -9502.1 -9491 -9486 -9538.7 -9456.5 -9461.5 
-9430.6 -9399.3 -9445.5 -9490.8 -9461.5 -9453.2 -9489.5 -9464.2 -9496.9 
-9453.8 -9472.8 -9455.5 -9455.9 -9449.9 -9521.6 -9442.3 -9379 -9453 
-9453.5 -9388.2 -8778.5 -8870 -8616.1 -8648.4 -8450.1 -8539.5 -8554.2 
-8512.4 -8345.3 -8463.5 -8372.8 -8347.5 -8729 -8591.4 -8960.7 -8858.9 
-9144.4 -9255.1 -8896.8 -9050.3 -8789.4 -8907.7 -8459.5 -8660 -8231.7 
-8231.8 -8469.2 -8342.8 -8586.8 -8506.2 -8694.6 -8586.6 -9281.1 -9223.9 
-9237.4 -9182.9 -9272.7 -9185.2 -9275.4 -9221 -9261.7 -9211.7 -9248.6 
-9221.4 -9221.9 -9202.8 -9207.7 -9186.6 -9188.3 -9164.6 -9235.1 -9147.3 
-9195.1 -9158.8 -9129.2 -9053.1 -8905 -8926.9 -9191.3 -9219.5 -9180.5 
-9020 -9101 -9391.2 -9405.4 -9432.2 -9368.8 -9415.1 -9290.8 -9363 
-8846.9 -8945.1 -8800.8 -9330.3 -9363.5 -9237.6 -9119.2 -9236.2 -9134 
-9331 -9332.2 -9288.7 -9328 -9372.1 -9364.3 -9318.2 -9248.5 -9368.4 
-9328.4 -9366.4 -9373.2 -9353.8 -9360.7 -9404.5 -9374.4 -9414.3 -9359.8 
-8777.5 -8802.3 -9111.1 -9051.7 -9048.6 -9046.8 -9048.1 -9015.6 -9062.5 
-9006.6 -9075.9 -8979.4 -9052.4 -8985.4 -9120.8 -9018.3 -9126.9 -9045.2 
-9045.4 -9056.6 -9059.4 -8978.5 -8523.8 -8683.7 -8457.2 -8511.7 -8284.2 
-8403.9 -8466.1 -8325.1 -8868 -8622.2 -9039.8 -8853.8 -9049 -9213.9 
-9244.2 -8896.7 -8967.3 -8467.1 -8596 -8417 -8435.2 -8511.1 -8398.7 
-8575.2 -8525.6 -8619.3 -8637.1 -9244.6 -9316.3 -8977.5 -9094.6 -9047.2 
-8953.7 -9342.1 -9338.7 -9216.3 -9250.6 -9082.9 -9145.2 -8927.8 -9010.4 
-8679.1 -8762.9 -8774.9 -8903.7 -8928 -8856.7 -8983.5 -8893.4 -8404 
-8511.3 -8956.6 -8953.7 -9357.7 -9343.3 -9095.7 -9234.8 -9055.7 -9251 
-9260.6 -8784 -8849.4 -8669.8 -8921.1 -8861.1 -8926.7 -8899.2 -8901.6 
-8878.4 -8898.2 -8877 -8892.4 -8862.6 -8891.3 -8865.7 -8425.1 -8336.6 
-8353.6 -8339.2 -8461.9 -8440.8 -9328.5 -9255.9 -9254.3 -9316.8 -9294.3 
-9253.8 -9257.1 -9284.7 -9298.3 -9252.4 -9269.4 -9299.9 -8679 -8708.6 
-8624.5 -8612.8 -8513.5 -8510.2 -8419 -8419.7 -8606.9 -8464.8 -8844.8 
-8720.4 -8885.9 -8678.6 -8808.6 -8827.9 -9244.5 -9256.6 -9249.1 -8672.8 
-8748.4 -8571.6 -8796.3 -8729.6 -8848.7 -8781.3 -8844.1 -8789.1 -8849.4 
-8816 -9196.7 -9056 -8962 -9013.6 -8589 -8794 -8558.9 -9055.9 
-9137.2 -8947.7 -8516.5 -8622.2 -8819.3 -8798.5 -9217.4 -9167.9 -8773.9 
-8737.7 -9138 -9115.3 -9229.7 -9127.4 -9243 -9136.2 -9205.6 -9143.7 
-9230.8 -9178.2 -8357.7 -8478.4 -8520.8 -8403.7 -8449.9 -8487.7 -8679.8 
-8604.3 -8359.4 -8405.3 -8459.4 -8375.3 -8536.6 -8507.2 -8957.7 -8991.3 
-8703.7 -8663.8 -8577.3 -8599 -9218.2 -9116.7 -9236.9 -8670.8 -8722.2 
-8592.1 -8770 -8805.4 -8524.3 -8634.9 -8645.2 -8662.5 -8701.3 -9023.7 
-8905.6 -8423.1 -8568.7 -9042.1 -9027.7 -9043.9 -8979.5 -8364.7 -8414.7 
-8363.2 -8405.9 -9120 -9013.3 -9103.7 -9031.9 -8833.2 -8793.9 -8770.3 
-8597.2 -8341.9 -8953.7 -8806.5 -8468.5 -8440.9 -8702.6 -8674.4 -8634.6 
-8690.1 -8659.1 -9029.6 -9076.5 -9035.7 -8883.4 -8853.1 -8609.7 -8477.3 
-8594.8 -8589.9 -8636.5 -8783.9 -8594.8 -8899.9 -8554.4 -8707.5 -8350.7 
-8660.2 -8693.3 -8587.5 -8664.7 -8656.6 -8857.1 -8728.9 -8854.8 -8796.4 
-8909.9 -8719.6 -8886 -8867.5 -8521.6 -8528.3 -8542.4 -8406.9 -8380.3 
-8447.6 -8398.4 -8416.6 -8581.1 -8589.4 -8815.1 -8630.8 -8461.4 -8516.4 
-8316.5 -8535.9 -8489.9 -8479.9 -8460.6 -8498.9 -8519.4 -8668.2 -8732.1 
-8558.7 -8569.5 -8551.4 -8529.8 -8648.6 -8599.9 -8635.1 -8586.5 -8385.4 
-8468.7 -8305.4 -8335.1 -8540.7 -8532.5 -8449.6 -8455.4 -8433.9 -8489.3 
-8356.7 -8437.8 -8258.6 -8329.5 -8428.7 -8419.8 -8458.2 -8504.3 -8430.5 
-8397.9 -8453.5 -8418.2 -8403.1 42983 44326 43559 41456 17756 
18802 17849 16250 -3079.3 -2621.1 -3528.5 -4669.1 -10503 -10292 
-10306 -10460 -11086 -10974 -10944 -10995 -11234 -11164 -11143 
-11171 -11307 -11259 -11251 -11270 -11349 -11304 -11284 -11310 
-11335 -11318 -11310 -11300 -11164 -11041 -11020 -11011 -10997 
-11291 -11512 -10966 -11309 -11697 -10919 -11331 -11772 -10897 
-11340 -11737 -10882 -11338 -11676 -10842 -11323 -11695 -10861 
-11283 -11680 -10834 -11276 -11671 -10877 -11283 -11674 -10834 
-11287 -11685 -10789 -11282 -11745 -10813 -11263 -11742 -10883 
-11223 -11777 -10942 -11221 -11696 -10923 -11229 -11664 -10944 
-11232 -11715 -10963 -11223 -11673 -10984 -11200 -11693 -10949 
-11147 -11663 -10890 -11111 -11322 -9776.8 -9788.8 -9938.8 -10204 
-10499 -10440 -10475 -10598 -10771 -10716 -10718 -10772 -10890 
-10851 -10843 -10868 -10964 -10935 -10924 -10937 -11018 -10995 
-10982 -10988 -11069 -11048 -11026 -11030 -11097 -11055 -11053 
-11066 -11094 -11081 -11062 -11052 -10800 -10771 -10772 -10791 
-11221 -11383 -11385 -11376 -11511 -11483 -11281 -11381 -11488 
-11411 -11388 -11444 -10985 -11115 -11182 -10970 -11114 -11188 
-10899 -11055 -11049 -11008 -11028 -10986 37346 39656 39826 
37782 9885 13282 13496 10413 -8152.2 -6411.2 -6283.4 -7958.4 
-10802 -10644 -10632 -10778 -11104 -11015 -11009 -11083 -11245 
-11184 -11179 -11223 -11327 -11276 -11271 -11299 -11363 -11324 
-11320 -11341 -11321 -11307 -11305 -11325 -11056 -11118 -11041 
-11055 -10110 -9954.2 -9950.9 -10107 -10514 -10436 -10432 -10508 
-10679 -10638 -10635 -10671 -10769 -10744 -10742 -10762 -10831 
-10814 -10811 -10824 -10880 -10867 -10864 -10872 -10921 -10912 
-10909 -10912 -10958 -10952 -10949 -10949 -10980 -10966 -10964 
-10963 -10940 -10926 -10915 -10917 -11109 -11368 -11636 -11114 
-11404 -11843 -11123 -11424 -11864 -11122 -11432 -11862 -11127 
-11435 -11864 -11126 -11437 -11874 -11127 -11441 -11870 -11137 
-11442 -11863 -11128 -11439 -11872 -11129 -11439 -11872 -11124 
-11439 -11862 -11132 -11439 -11864 -11141 -11442 -11858 -11122 
-11440 -11869 -11128 -11436 -11884 -11125 -11435 -11872 -11125 
-11431 -11862 -11094 -11422 -11866 -11126 -11407 -11842 -11079 
-11360 -11635 -10912 -10966 -10986 -10888 -10968 -11062 -10877 
-10974 -11092 -10924 -10977 -11103 -10926 -10979 -11095 -10921 
-10980 -11104 -10910 -10980 -11093 -10899 -10979 -11082 -10933 