# vtk DataFile Version 4.2
vtk output
ASCII
DATASET UNSTRUCTURED_GRID
POINTS 8741 float
-48.6937 -42.4895 28.1219 -48.6938 -30.4895 28.1192 -48.6941 30.5105 28.105 
-48.6942 42.5105 28.1023 -44.6953 46.5105 28.0079 -32.6986 46.5105 27.7274 
28.2847 46.5105 26.3019 40.2815 46.5105 26.0214 44.2804 42.5105 25.9289 
44.2804 30.5105 25.9317 44.2808 -30.4895 25.9458 44.2808 -42.4895 25.9485 
40.282 -46.4895 26.0429 28.2852 -46.4895 26.3234 -44.6948 -46.4895 28.0294 
-32.6981 -46.4895 27.7489 28.0627 46.5083 16.8045 27.572 46.5034 -4.1898 
39.5687 46.5034 -4.47024 40.0594 46.5083 16.524 -32.9206 46.5083 18.23 
-44.9173 46.5083 18.5105 -45.4081 46.5034 -2.48381 -33.4114 46.5034 -2.76425 
44.0584 42.5083 16.4315 -48.9162 42.5083 18.6049 43.5676 42.5034 -4.56279 
43.5677 30.5034 -4.56002 44.0584 30.5083 16.4342 -48.9161 30.5083 18.6076 
-49.4069 30.5034 -2.38663 -49.407 42.5034 -2.38941 44.0588 -30.4917 16.4484 
-48.9158 -30.4917 18.6217 43.568 -30.4966 -4.5459 43.5681 -42.4966 -4.54312 
44.0588 -42.4917 16.4511 -48.9157 -42.4917 18.6245 -49.4065 -42.4966 -2.36974 
-49.4066 -30.4966 -2.37251 40.06 -46.4917 16.5455 -44.9168 -46.4917 18.532 
39.5692 -46.4966 -4.44872 27.5725 -46.4966 -4.16828 28.0632 -46.4917 16.826 
-32.9201 -46.4917 18.2515 -33.4109 -46.4966 -2.74273 -45.4076 -46.4966 -2.46229 
-32.9202 -26.4917 18.2469 -28.9213 -30.4917 18.1544 -28.9212 -42.4917 18.1571 
24.0643 -42.4917 16.9185 24.0642 -30.4917 16.9158 28.0631 -26.4917 16.8214 
40.0598 -26.4917 16.5409 40.0596 26.5083 16.5287 28.0628 26.5083 16.8091 
24.0639 30.5083 16.9016 24.0638 42.5083 16.8989 -28.9217 42.5083 18.1375 
-28.9216 30.5083 18.1402 -32.9205 26.5083 18.2346 -44.9172 26.5083 18.5151 
-44.9169 -26.4917 18.5273 51.6071 30.4939 -45.7591 51.607 46.4939 -45.7628 
42.6094 55.4939 -45.5546 26.6138 55.4939 -45.1807 26.6138 46.4939 -45.1786 
22.6149 42.4939 -45.0842 22.6149 41.6939 -45.084 -3.87784 41.6939 -44.4647 
-3.87778 31.2939 -44.4623 22.615 31.2939 -45.0816 22.615 30.4939 -45.0814 
26.6139 26.4939 -45.174 27.4137 26.4939 -45.1927 27.4138 -0.00607 -45.1865 
37.811 -0.00607 -45.4296 37.8108 26.4939 -45.4357 42.6095 30.4939 -45.5488 
38.6106 26.4939 -45.4544 39.0312 46.4981 -27.4639 27.0345 46.4981 -27.1835 
27.0344 55.4981 -27.1856 43.03 55.4981 -27.5595 52.0276 46.4981 -27.7677 
52.0277 30.4981 -27.764 43.0301 42.4981 -27.5565 43.0302 30.4981 -27.5537 
27.572 46.5034 -4.1898 23.5731 42.5034 -4.0954 23.5731 30.5034 -4.09262 
27.5721 26.5034 -4.18517 39.5688 26.5034 -4.46561 43.5677 30.5034 -4.56002 
39.5687 46.5034 -4.47024 43.5676 42.5034 -4.56279 22.8954 31.2967 -33.0849 
22.8954 41.6967 -33.0873 -3.59734 31.2967 -32.4656 -3.5974 41.6967 -32.468 
38.0913 26.4967 -33.439 27.6941 26.4967 -33.1959 38.0914 -0.00329 -33.4328 
27.6943 -0.00329 -33.1898 23.5731 42.5034 -4.0954 23.5731 30.5034 -4.09262 
27.5721 26.5034 -4.18517 39.5688 26.5034 -4.46561 -45.5664 26.4939 -43.4867 
-45.5662 -0.00607 -43.4805 -35.1691 -0.00607 -43.7236 -35.1692 26.4939 -43.7297 
-34.3694 26.4939 -43.7484 -30.3705 30.4939 -43.8428 -30.3705 31.2939 -43.843 
-3.87778 31.2939 -44.4623 -3.87784 41.6939 -44.4647 -30.3706 41.6939 -43.8454 
-30.3706 42.4939 -43.8456 -34.3695 46.4939 -43.753 -34.3696 55.4939 -43.7551 
-50.3652 55.4939 -43.3812 -59.3627 46.4939 -43.1688 -59.3626 30.4939 -43.1651 
-50.3651 30.4939 -43.3754 -46.3661 26.4939 -43.468 -58.942 30.4981 -25.17 
-58.942 46.4981 -25.1737 -49.9445 55.4981 -25.3861 -33.9489 55.4981 -25.76 
-33.9489 46.4981 -25.758 -45.9456 46.4981 -25.4775 -49.9445 42.4981 -25.3831 
-49.9444 30.4981 -25.3803 -33.4114 46.5034 -2.76425 -29.4124 42.5034 -2.8568 
-29.4124 30.5034 -2.85403 -33.4113 26.5034 -2.75962 -45.408 26.5034 -2.47918 
-49.4069 30.5034 -2.38663 -45.4081 46.5034 -2.48381 -49.407 42.5034 -2.38941 
-30.0901 31.2967 -31.8463 -30.0902 41.6967 -31.8487 -3.5974 41.6967 -32.468 
-3.59734 31.2967 -32.4656 -45.2859 26.4967 -31.49 -34.8888 26.4967 -31.733 
-34.8886 -0.00329 -31.7269 -45.2858 -0.00329 -31.4838 -29.4124 42.5034 -2.8568 
-29.4124 30.5034 -2.85403 -33.4113 26.5034 -2.75962 -45.408 26.5034 -2.47918 
37.8111 -26.5061 -45.4234 37.811 -0.00607 -45.4296 27.4138 -0.00607 -45.1865 
27.414 -26.5061 -45.1804 26.6142 -26.5061 -45.1617 22.6153 -30.5061 -45.0673 
22.6153 -31.3061 -45.0671 -3.87744 -31.3061 -44.4478 -3.87739 -41.7061 -44.4454 
22.6154 -41.7061 -45.0647 22.6154 -42.5061 -45.0645 26.6143 -46.5061 -45.1571 
26.6143 -55.5061 -45.155 42.61 -55.5061 -45.5289 51.6075 -46.5061 -45.7413 
51.6074 -30.5061 -45.745 42.6099 -30.5061 -45.5347 38.6109 -26.5061 -45.4421 
52.028 -30.5019 -27.7499 52.0281 -46.5019 -27.7462 43.0306 -55.5019 -27.5338 
27.035 -55.5019 -27.1599 27.035 -46.5019 -27.162 39.0317 -46.5019 -27.4424 
43.0306 -42.5019 -27.5368 43.0305 -30.5019 -27.5396 27.5725 -46.4966 -4.16828 
23.5735 -42.4966 -4.07573 23.5735 -30.4966 -4.0785 27.5724 -26.4966 -4.17291 
39.5691 -26.4966 -4.45335 43.568 -30.4966 -4.5459 39.5692 -46.4966 -4.44872 
43.5681 -42.4966 -4.54312 22.8958 -31.3033 -33.0704 22.8958 -41.7033 -33.068 
-3.59695 -41.7033 -32.4487 -3.59701 -31.3033 -32.4511 38.0916 -26.5033 -33.4267 
27.6944 -26.5033 -33.1837 27.6943 -0.00329 -33.1898 38.0914 -0.00329 -33.4328 
23.5735 -42.4966 -4.07573 23.5735 -30.4966 -4.0785 27.5724 -26.4966 -4.17291 
39.5691 -26.4966 -4.45335 -45.4077 -26.4966 -2.46692 -33.411 -26.4966 -2.74736 
-29.412 -30.4966 -2.83991 -29.412 -42.4966 -2.83713 -34.3691 -26.5061 -43.7361 
-46.3659 -26.5061 -43.4557 -45.5661 -26.5061 -43.4744 -45.2856 -26.5033 -31.4777 
-34.8885 -26.5033 -31.7207 -35.1689 -26.5061 -43.7174 -30.3701 -42.5061 -43.8259 
-30.3702 -30.5061 -43.8287 -30.3702 -31.3061 -43.8285 -30.0898 -31.3033 -31.8318 
-30.0897 -41.7033 -31.8294 -30.3701 -41.7061 -43.8261 -49.944 -42.5019 -25.3634 
-49.9441 -30.5019 -25.3662 -45.9451 -46.5019 -25.456 -33.9484 -46.5019 -25.7364 
-45.2858 -0.00329 -31.4838 -34.8886 -0.00329 -31.7269 -35.1691 -0.00607 -43.7236 
-45.5662 -0.00607 -43.4805 -3.59701 -31.3033 -32.4511 -3.59695 -41.7033 -32.4487 
-3.87744 -31.3061 -44.4478 -3.87739 -41.7061 -44.4454 -33.9483 -55.5019 -25.7344 
-49.944 -55.5019 -25.3604 -58.9415 -46.5019 -25.1522 -58.9416 -30.5019 -25.1559 
-59.3623 -30.5061 -43.151 -50.3647 -30.5061 -43.3613 -59.3622 -46.5061 -43.1473 
-34.369 -46.5061 -43.7315 -34.369 -55.5061 -43.7294 -50.3646 -55.5061 -43.3555 
-46.2251 -46.185 28.0651 -47.5225 -45.3179 28.0952 -48.3893 -44.0202 28.1152 
-48.6938 -39.4895 28.1212 -48.6938 -36.4895 28.1205 -48.6938 -33.4895 28.1199 
-48.6938 -27.4395 28.1185 -48.6938 -24.3895 28.1177 -48.6939 -21.3395 28.117 
-48.6939 -18.2895 28.1163 -48.6939 -15.2395 28.1156 -48.6939 -12.1895 28.1149 
-48.6939 -9.13952 28.1142 -48.6939 -6.08952 28.1135 -48.694 -3.03952 28.1128 
-48.694 0.01048 28.1121 -48.694 3.06048 28.1114 -48.694 6.11048 28.1107 
-48.694 9.16048 28.11 -48.694 12.2105 28.1093 -48.694 15.2605 28.1086 
-48.6941 18.3105 28.1079 -48.6941 21.3605 28.1072 -48.6941 24.4105 28.1064 
-48.6941 27.4605 28.1057 -48.6941 33.5105 28.1043 -48.6942 36.5105 28.1036 
-48.6942 39.5105 28.103 -48.3898 44.0412 28.0948 -47.523 45.3389 28.0742 
-46.2256 46.206 28.0437 -41.6961 46.5105 27.9377 -38.6969 46.5105 27.8676 
-35.6978 46.5105 27.7975 -29.6494 46.5105 27.6561 -26.6003 46.5105 27.5849 
-23.5511 46.5105 27.5136 -20.5019 46.5105 27.4423 -17.4528 46.5105 27.371 
-14.4036 46.5105 27.2997 -11.3544 46.5105 27.2285 -8.30526 46.5105 27.1572 
-5.25609 46.5105 27.0859 -2.20693 46.5105 27.0146 0.84224 46.5105 26.9434 
3.8914 46.5105 26.8721 6.94057 46.5105 26.8008 9.98974 46.5105 26.7295 
13.0389 46.5105 26.6583 16.0881 46.5105 26.587 19.1372 46.5105 26.5157 
22.1864 46.5105 26.4444 25.2356 46.5105 26.3731 31.2839 46.5105 26.2318 
34.2831 46.5105 26.1616 37.2823 46.5105 26.0915 41.8117 46.206 25.9857 
43.1091 45.3389 25.9556 43.976 44.0412 25.9356 44.2804 39.5105 25.9296 
44.2804 36.5105 25.9303 44.2804 33.5105 25.931 44.2805 27.4605 25.9324 
44.2805 24.4105 25.9331 44.2805 21.3605 25.9338 44.2805 18.3105 25.9345 
44.2805 15.2605 25.9352 44.2805 12.2105 25.9359 44.2806 9.16048 25.9366 
44.2806 6.11048 25.9373 44.2806 3.06048 25.938 44.2806 0.01048 25.9387 
44.2806 -3.03952 25.9394 44.2807 -6.08952 25.9401 44.2807 -9.13952 25.9408 
44.2807 -12.1895 25.9415 44.2807 -15.2395 25.9422 44.2807 -18.2895 25.9429 
44.2807 -21.3395 25.9436 44.2808 -24.3895 25.9444 44.2808 -27.4395 25.9451 
44.2808 -33.4895 25.9465 44.2808 -36.4895 25.9472 44.2808 -39.4895 25.9478 
43.9765 -44.0202 25.956 43.1096 -45.3179 25.9766 41.8122 -46.185 26.0071 
37.2828 -46.4895 26.1131 34.2836 -46.4895 26.1832 31.2844 -46.4895 26.2533 
25.2361 -46.4895 26.3947 22.1869 -46.4895 26.4659 19.1377 -46.4895 26.5372 
16.0886 -46.4895 26.6085 13.0394 -46.4895 26.6798 9.99024 -46.4895 26.751 
6.94108 -46.4895 26.8223 3.89191 -46.4895 26.8936 0.84274 -46.4895 26.9649 
-2.20642 -46.4895 27.0362 -5.25559 -46.4895 27.1074 -8.30476 -46.4895 27.1787 
-11.3539 -46.4895 27.25 -14.4031 -46.4895 27.3213 -17.4522 -46.4895 27.3925 
-20.5014 -46.4895 27.4638 -23.5506 -46.4895 27.5351 -26.5998 -46.4895 27.6064 
-29.6489 -46.4895 27.6777 -35.6973 -46.4895 27.819 -38.6964 -46.4895 27.8892 
-41.6956 -46.4895 27.9593 28.1367 46.509 19.9703 28.2107 46.5097 23.1361 
27.6421 46.5041 -1.19062 27.7122 46.5048 1.80856 27.7823 46.5055 4.80774 
27.8524 46.5062 7.80692 27.9225 46.5069 10.8061 27.9926 46.5076 13.8053 
30.5711 46.5034 -4.25991 33.5703 46.5034 -4.33002 36.5695 46.5034 -4.40013 
39.6388 46.5041 -1.47106 39.7089 46.5048 1.52812 39.779 46.5055 4.5273 
39.8491 46.5062 7.52648 39.9192 46.5069 10.5257 39.9893 46.5076 13.5248 
40.1334 46.509 19.6898 40.2075 46.5097 22.8556 -32.8466 46.509 21.3958 
-32.7726 46.5097 24.5616 25.0136 46.5083 16.8757 21.9644 46.5083 16.947 
18.9152 46.5083 17.0183 15.8661 46.5083 17.0896 12.8169 46.5083 17.1609 
9.76772 46.5083 17.2321 6.71856 46.5083 17.3034 3.66939 46.5083 17.3747 
0.62023 46.5083 17.446 -2.42894 46.5083 17.5172 -5.47811 46.5083 17.5885 
-8.52727 46.5083 17.6598 -11.5764 46.5083 17.7311 -14.6256 46.5083 17.8023 
[...]
CELL_DATA 12638
SCALARS cell_scalars float
LOOKUP_TABLE default
-7392.6 -7161.6 -7728.4 -7686.6 -7018.7 -7548.4 -7291.6 -7290.1 -7719.9 
-7532.8 -7958.3 -7676.9 -8120.6 -7858.2 -8310.5 -8036.3 -8352.1 -8054.8 
-8450.3 -8211.8 -8446.3 -7986.4 -8213 -7733.5 -8049.8 -7503.2 -7822.3 
-7258.2 -7603.1 -7013.6 -7455.1 -6775 -7194.4 -6619.8 -7147.7 -6372.8 
-6817.6 -6532.5 -7119.8 -6923 -7400.9 -7253.8 -7755.1 -7532.4 -8005 
-7751 -8202.6 -7919.9 -8365.1 -8071.3 -8431.6 -8180.4 -8487.3 -8137.3 
-8399.2 -7945.5 -8207.6 -7688.9 -8012.3 -7481.2 -7820 -7277.6 -7659.1 
-7226.6 -7961.3 -7944 -7364.1 -7812.8 -7598.2 -7055 -7535 -7022.7 
-7523.9 -6919 -7462 -6913.7 -7410.1 -6870.4 -7365.9 -6854.3 -7428.3 
-6836.2 -7417.5 -6891.8 -7435.4 -6909.6 -7393.4 -6912.2 -7391.7 -6894.6 
-7324.6 -6835.3 -7386 -6879 -7403.5 -6896.1 -7377 -6872.7 -7385.9 
-6859.1 -7392.2 -6852.8 -7342.4 -6799.3 -7367 -6864.8 -7405.7 -6865.2 
-7362.7 -6841.8 -7374.7 -6823.2 -7364.5 -6807.1 -7311 -6753.7 -7360.9 
-6817.9 -7356 -6837.6 -7341.9 -6825.6 -7374.1 -6905.7 -7415.1 -6952.9 
-7501 -7694.3 -7267.5 -7903.2 -7984.3 -7270.2 -7657.3 -7242.7 -7762.5 
-7445.2 -7969.8 -7683.3 -8167.8 -7901.6 -8334.4 -8120.9 -8475.3 -8168.1 
-8444.1 -8093.9 -8415.6 -7952 -8252 -7792.9 -8063 -7596.4 -7832.5 
-7338.7 -7531.6 -7053.9 -7192.4 -6674.7 -6771.3 -6296.1 -7095.6 -6553.7 
-7277.9 -6693.8 -7253.8 -6911.4 -7492.4 -7179 -7740.7 -7445.8 -7998.4 
-7682.1 -8168.1 -7907 -8368.4 -8141.8 -8463.2 -8073.3 -8360.7 -8035.5 
-8331.1 -7876.5 -8226.4 -7756.7 -7974.7 -7526.7 -7764.3 -7377 -7750.2 
-7792.9 -7191.4 -7434.1 -7659.1 -7171.2 -7282.7 -6907.4 -7120.8 -6981.7 
-7170.4 -7041.4 -7208.3 -6919.6 -7102.2 -6912.7 -7152.3 -6925.3 -7187.1 
-6944.8 -7105.1 -6901.5 -7199.9 -6922.8 -7119 -6894.2 -7141.4 -6950.2 
-7137.4 -6956.8 -7080.5 -6882.5 -7107.7 -6883.9 -7172.1 -6850.5 -7029.4 
-6863.7 -7094 -6918.8 -7087.6 -6883 -7025.3 -6886.6 -7126.9 -6880.5 
-7142.7 -6898.7 -7070.3 -6807.6 -7068.2 -6855.7 -7117.4 -6844.9 -7109.2 
-6856.2 -7191.2 -6872.2 -7192.8 -6892.5 -6951.4 -7059 -7158.8 -7178.6 
-7010.1 -7096.5 -6739.6 -6810.6 -6808.5 -6666.5 -6685.2 -6805.7 -6714 
-6618 -6886.8 -6756.3 -7337 -7174.8 -7471.2 -7325.6 -7569.7 -7508.4 
-7744.3 -7669.8 -7822.7 -7761.1 -7918.6 -7910.6 -7699.5 -7776.9 -7449.5 
-7546.3 -7188.8 -7291.6 -6934.3 -7050.1 -6671.1 -6819.7 -6501.7 -6622.3 
-6347 -6420.1 -6229.3 -6330.4 -6423.2 -6182 -6735.7 -6506.7 -7018.4 
-6881.3 -7305.5 -7120.1 -7492.8 -7346.3 -7645.9 -7525.9 -7794.4 -7692.9 
-7892.4 -7845.8 -7881.4 -7892.4 -7628.4 -7718.8 -7381.1 -7438.4 -7064.5 
-7177.4 -6965.1 -7029.2 -6825.2 -6980.5 -7094.6 -7032.7 -7064.7 -7059.4 
-7049.6 -7080 -7159.2 -7020.9 -7111 -6995.1 -7141.4 -6995.5 -7078.5 
-6986.4 -7116.9 -7007.2 -7037 -6965.1 -7107.6 -7034.7 -7049.3 -7007.1 
-7046 -6977.5 -7049 -6976.9 -7092.6 -6971.1 -7103.8 -6973.2 -7086.9 
-7043.8 -7062.9 -7000.9 -7064 -6993 -7059.1 -6967.2 -7096.2 -6996.7 
-7047.7 -7087.7 -7064.3 -7015.5 -7046.5 -6953.3 -7121.7 -6884.4 -7026.1 
-6603.4 -6662.9 -6651.7 -6649.3 -6626.3 -6678.1 -6711.6 -6680.5 -6640.4 
-6739.7 -6655.2 -6644.9 -6630.7 -6683.6 -6642.8 -6635.6 -6645.6 -6644.4 
-6648 -6657.2 -6615.4 -6675.7 -6634.4 -6658 -6607.3 -6655.8 -6607.7 
-6646.6 -6611.3 -6646.4 -6612.8 -6654.7 -6617.4 -6638.7 -6620.7 -6631.1 
-6611.5 -6635.6 -6603 -6647.1 -6629.1 -6665.7 -6625.9 -6673.8 -6617.7 
-6668.3 -6622 -6671.7 -6641.6 -6616.8 -6551.9 -6647.1 -6901.4 -6797.9 
-7179 -7030.1 -7436.9 -7295.6 -7686.6 -7542.6 -7865 -7779.7 -7890 
-7862.9 -7744.2 -7779.5 -7631.6 -7641.7 -7437.2 -7479 -7232.4 -7297.7 
-6964.9 -7076.8 -6650.3 -6817.7 -6288.1 -6418.7 -6272.7 -6258.1 -6385.4 
-6327.4 -6572.3 -6459.1 -6748.7 -6653.4 -7016.3 -6879.7 -7244.2 -7112 
-7512.6 -7364.4 -7771.3 -7602 -7950.4 -7843.1 -7817.3 -7850.7 -7765.1 
-7783 -7643.6 -7681.6 -7444.3 -7495.8 -7222.6 -7291 -6760.5 -7102.2 
-6613.3 -6677.7 -7118.9 -6914.1 -6907.7 -7106.2 -7162.1 -7390.5 -7263.2 
-6738.3 -6796 -6957.8 -6865.6 -7544.2 -7455.6 -7201.5 -7084.4 -7004.2 
-6918.1 -7705 -7589 -7477.3 -7319.8 -7784.4 -7712.3 -7899.6 -7805.2 
-7721.7 -7831 -7497.6 -7622.2 -7264.7 -7396.7 -7011.4 -7130.4 -6775.1 
-6857 -6575.6 -6627.8 -6380.2 -6446.5 -6253.6 -6272.1 -6292.1 -6210.6 
-6575 -6441.9 -6908 -6770.9 -7160.8 -7054.8 -7374 -7291.2 -7546.4 
-7497.2 -7722.2 -7644 -7864.5 -7773.3 -7896.1 -7891.5 -7682.6 -7780.2 
-7395.1 -7522.8 -7724.5 -7590.4 -7854 -7810.8 -7775.1 -7830.5 -7639.2 
-7726.2 -7489.5 -7586.9 -7311.5 -7437.6 -7086.1 -7259.6 -6843.9 -6960.5 
-6488.2 -6680.3 -6159.6 -6289.1 -6303.7 -6231.5 -6437 -6325.4 -6617 
-6481.1 -6821.8 -6698.6 -7083.4 -6929 -7319 -7173.2 -7572.9 -7412.6 
-7774.3 -7680.5 -7835.9 -7867.6 -7712.4 -7738.4 -7640.7 -7657.6 -7564.2 
-7585 -7125.4 -7279.7 -7288.7 -7386.2 -7131.5 -7227.1 -7132.3 -7195.4 
-7256.2 -7234.2 -7135.3 -7212.9 -7298.2 -7236.3 -7251.3 -7326.4 -7282.3 
-7376 -7307 -7328.6 -7254.1 -7314.4 -7301.5 -7341.6 -7268.2 -7309.2 
-7293.7 -7349.4 -7279.5 -7331.1 -7275.4 -7365.8 -7257.2 -7335.7 -7269.7 
-7297.2 -7279.3 -7317.1 -7291.1 -7326.7 -7264.7 -7308.2 -7271.2 -7291.6 
-7250.5 -7293.7 -7043.2 -7207.2 -7113.1 -7139.1 -7157.5 -7160.1 -6714.4 
-6773.3 -6784.5 -6804.7 -6710.2 -6801.9 -6800.8 -6805.8 -6818.6 -6841.6 
-6807.9 -6923.9 -6821.4 -6889.5 -6774.4 -6854.3 -6797.4 -6862.5 -6799.8 
-6860.2 -6788.9 -6852.5 -6807.1 -6876 -6811.1 -6874.7 -6809.6 -6878.8 
-6829.1 -6888.1 -6789.4 -6908.3 -6807.3 -6902.5 -6807.9 -6894.2 -6811.6 
-6861.2 -6810.8 -6838.3 -6749 -6832.1 -6693.8 -6743.5 -6744.9 -6806.3 
-6709.4 -6765.2 -6715.7 -6771.1 -6865.5 -7255.3 -6973.3 -6992 -7071.8 
-7259.8 -7140 -6722.7 -6743.6 -6907.1 -7001.5 -6926.9 -7086.2 -6965.3 
-6892.6 -6969.3 -7334.8 -7175.3 -7393.7 -7361.6 -7305.4 -7366.8 -7542.2 
-7522.1 -7651.8 -7650.2 -7577.1 -7437.3 -7277.7 -7399.9 -6921.6 -6977.8 
-7739.8 -7679.3 -7796.2 -7699 -7179.8 -7141.7 -7803.3 -7833.3 -7635 
-7736.5 -7342.6 -7497.5 -7087.1 -7198.3 -6819.3 -6954.6 -6582.4 -6688.8 
-6368.9 -6491.8 -6217.6 -6287.6 -6076.5 -6158.4 -6575.4 -6273.9 -6869.4 
-6695.5 -7132.4 -6960.1 -7339.2 -7246.1 -7530.2 -7428.1 -7694.8 -7608.1 
-7748.5 -7733 -7827.8 -7779 -7767.9 -7853.2 -7504.1 -7639.7 -7258.7 
-7420.3 -7862.3 -7867.8 -7773.1 -7797.6 -7634.9 -7701.6 -7491.4 -7545.6 
-7285.6 -7392.4 -7075.6 -7157.6 -6827.7 -6901.4 -6430.1 -6637.6 -6134.7 
-6205.6 -6264.1 -6174 -6443.1 -6355 -6639.8 -6533.1 -6878.7 -6763.9 
-7125.2 -7016.9 -7380.9 -7270 -7701.9 -7568.9 -7878.4 -7814.6 -7753.3 
-7849 -7691.6 -7722 -7525.5 -7621.3 -7398.1 -7420.4 -7373.2 -7393.1 
-7309.7 -7430.6 -7351.9 -7433.9 -7445.3 -7410.2 -7471.5 -7421.9 -7437 
-7487.6 -7420.4 -7507.8 -7431.4 -7481 -7419.9 -7448.6 -7417.5 -7479.7 
-7405.8 -7436.7 -7392.6 -7432.7 -7393.7 -7431.7 -7308.3 -7380.8 -7291.1 
-7365.6 -7289.2 -7359.9 -7259.4 -7379.3 -7276 -7331.4 -7293.3 -7329.3 
-7363.1 -7396.2 -7246 -7355.7 -6950 -6986.9 -6956.5 -7048.9 -7015.5 
-7051.9 -7044.9 -7078.1 -7074.6 -7139.8 -7061.5 -7117.4 -7058.1 -7137.4 
-7050.6 -7113.7 -7034.6 -7097.3 -7021.3 -7090.7 -7023.3 -7088.8 -7035.9 
-7074.2 -7014.4 -7056.1 -6991.5 -7056.2 -6982.7 -7050.9 -6952.3 -7028.6 
-6925.6 -7019.1 -6946 -6991.8 -6895.9 -7019.8 -6842.4 -6934.8 -6838 
-6931.3 -6852.5 -6957.7 -7114.7 -7190.8 -7182.4 -6832 -6909.8 -7280.7 
-7352.7 -7292.1 -7035.2 -7128.1 -7485.3 -7429.6 -7061.1 -7131.8 -7204.4 
-7094.2 -7086.2 -7494.4 -7469.4 -7443.7 -7648.8 -7571.1 -7742.8 -7724.7 
-7908.1 -7798.4 -7473.7 -7345.5 -7748.1 -7592.1 -7839.5 -7853.4 -7576.2 
-7530.1 -7062.8 -7117.9 -7395.1 -7263.1 -7451.7 -7482.1 -7090.3 -7141.1 
-7731.4 -7679.8 -7671 -7513.2 -7502 -7479.6 -7743.6 -7872.9 -7787.3 
-7820.5 -7166.3 -7183.1 -7207.3 -7236.7 -7212.1 -7275.9 -7201 -7293.7 
-7170.3 -7291.5 -7163.3 -7241.2 -7170.6 -7254.8 -7165.5 -7261.1 -7192.9 
-7243.6 -7199.8 -7244.3 -7205.6 -7250.4 -7205.4 -7244.4 -7214.5 -7254.6 
-7208.4 -7294.9 -7220.7 -7297.2 -7528.6 -7533.4 -7566.8 -7646.3 -7572.8 
-7615.3 -7582 -7629.4 -7566.7 -7601.2 -7575.6 -7638.7 -7513.5 -7579 
-7476.5 -7554.8 -7451.7 -7533.5 -7464.1 -7558.3 -7455.7 -7531.6 -7492.2 
-7569.7 -7507.8 -7562.7 -7526.1 -7554.4 -7472.4 -7593.8 -7872.8 -7785.1 
-7834.2 -7898.1 -7660.1 -7772.7 -7529.5 -7584.5 -7322.9 -7418.2 -7114.1 
-7203 -6850.1 -6912.3 -6501 -6647.8 -6252.1 -6437.9 -6240.6 -6183.1 
-6349.9 -6354.5 -6550.8 -6427.6 -6730.6 -6659.7 -6960.5 -6860 -7210.2 
-7103.1 -7471.8 -7328.1 -7824.2 -7758.2 -7770.2 -7857.4 -7570.8 -7668.2 
-7352.2 -7454.2 -7088.8 -7210.5 -6860.8 -6971.8 -6580.3 -6748.7 -6362.6 
-6505.5 -6202.4 -6324.5 -6230.6 -6218.2 -6559.7 -6354 -6855.7 -6708.7 
-7105.7 -6982.4 -7255.3 -7131 -7440.8 -7322.1 -7630.1 -7521.5 -7183.4 
-7245 -7490.1 -7531.4 -7216.4 -7293 -7575.7 -7589.3 -7163.5 -7256.5 
-7502.2 -7552.1 -7144.9 -7197 -7482.8 -7534.2 -7632.1 -7732.5 -7484.8 
-7188.9 -7382.2 -7311.4 -7603.7 -7519.4 -7544.5 -7583.8 -7675.3 -7585 
-7342.1 -7274.1 -7490.8 -7314.4 -7747.2 -7648.6 -7823.4 -7762.4 -7890.6 
-7640.3 -7527.6 -7811 -7715.9 -7808.2 -7864 -7592.7 -7649.4 -7334.2 
-7396.1 -7610.1 -7691.6 -7713.7 -7696.2 -7691.9 -7733 -7672.1 -7674.8 
-7696.1 -7743.5 -7724.6 -7695.3 -7726 -7754 -7698.6 -7737.9 -7737.2 
-7752.7 -7705.7 -7739.2 -7740.3 -7749.6 -7684.8 -7690.4 -7676.6 -7702.3 
-7611.8 -7671.1 -7653 -7697.5 -7629.7 -7625.3 -7638.5 -7639.4 -7601.7 
-7655.8 -7402.5 -7441.7 -7469.3 -7486.5 -7402.3 -7513.4 -7449.4 -7508.4 
-7411.4 -7522.6 -7424.6 -7505.8 -7421 -7503.6 -7403.6 -7513.2 -7416.5 
-7518.6 -7438 -7522.2 -7483.1 -7544.9 -7448.7 -7546.2 -7455.7 -7528.1 
-7396.2 -7467.8 -7379 -7452 -7372 -7441.6 -7358.3 -7419.4 -7350.6 
-7419.1 -7763.9 -7606.3 -7844.7 -7833.1 -7805.5 -7803.9 -7674.8 -7730.4 
-7512.8 -7594.8 -7353.4 -7463.4 -7137.4 -7293.2 -6864.3 -7008.2 -6452.5 
-6705.8 -6247.2 -6194.8 -6322.6 -6251.5 -6497.1 -6378.6 -6648.1 -6530 
-6896.9 -6763.8 -7144.5 -7020.7 -7355.6 -7248.8 -7772 -7715.3 -7853.9 
-7784.1 -7712.3 -7833 -7412.2 -7560.9 -7155.4 -7270.2 -6870.1 -7021.3 
-6694.8 -6770.8 -6575.2 -6615.2 -6410.3 -6446.2 -6356.4 -6297 -6209.4 
-6255.1 -6637.8 -6486.8 -6919.6 -6779.9 -7306 -7097.6 -7489.5 -7412.8 
-7645.2 -7564.3 -7528.6 -7687.3 -7427.9 -7627 -7518.4 -7647.3 -7616.8 
-7688.3 -7697.1 -7780.7 -7660.9 -7484.5 -7635.4 -7843.8 -7733.3 -7751.7 
-7738.3 -7738.7 -7601.2 -7633 -7757.6 -7879.1 -7855.2 -7751.4 -7747 
-7806.8 -7790.7 -7797.1 -7797.8 -7820.6 -7812.3 -7777.5 -7813.8 -7817.5 
-7829.7 -7779.8 -7790.4 -7792.7 -7764.7 -7767 -7763.3 -7775.8 -7765.4 
-7726.4 -7752.7 -7737.7 -7761.3 -7806.6 -7803.8 -7773.2 -7804.8 -7692.2 
-7776.8 -7729.1 -7746 -7742.2 -7800.4 -7648.5 -7702.8 -7682.2 -7739.8 
-7710.4 -7752.8 -7722.7 -7787.6 -7708.1 -7763.5 -7687.3 -7783.2 -7718.4 
-7771.4 -7680.3 -7771.3 -7666.8 -7733.5 -7604.8 -7714.4 -7622.3 -7684.9 
-7610.9 -7665.9 -7609 -7682.4 -7632.4 -7706.2 -7657.1 -7719.4 -7600.7 
-7704 -7609 -7668.4 -7877 -7798.6 -7790.7 -7907.9 -7656.4 -7762.1 
-7524.6 -7599.1 -7349.1 -7454.9 -7223.6 -7204 -6957.4 -7036.7 -6643.7 
-6787.9 -6322.4 -6538.2 -6142.5 -6119.6 -6336.4 -6221.7 -6491.4 -6355.7 
-6732.6 -6567 -6952.3 -6816.9 -7205.4 -7062.3 -7855.7 -7810.4 -7752.1 
-7814.9 -7901.3 -7562 -7700 -7343.2 -7454.6 -7064.8 -7197.4 -6812.9 
-6960.1 -6571.3 -6717.8 -6352.6 -6441.9 -6175 -6259 -6387.9 -6146.3 
-6559.8 -6440.3 -6851.3 -6775.3 -7158.6 -7052.2 -7367.2 -7249.9 -7543.8 
-7431.2 -7733.2 -7752 -7646.1 -7757.5 -7877.1 -7844.6 -7781.7 -7867.7 
-7845 -7792.4 -7886.5 -7820.4 -7851.5 -7860.3 -7879.8 -7803.3 -7818.8 
-7750.2 -7819.7 -7671.3 -7709.9 -7584.6 -7812.6 -7798.4 -7821 -7873 
-7781.3 -7855.1 -7835.2 -7835.7 -7844.6 -7886.8 -7812.3 -7865.6 -7801.5 
-7877.6 -7807.2 -7895.5 -7804.3 -7889.5 -7806.3 -7863.6 -7796.4 -7859.6 
-7342.4 -7473.6 -7698.6 -7555.9 -7768.6 -7835.9 -7797.4 -7850.8 -7827 
-7846.8 -7893.2 -7841.3 -7822.9 -7863.5 -7759.2 -7840.8 -7805.1 -7824.9 
-7769.7 -7824.2 -7854.2 -7824.1 -7820.3 -7872.9 -7808.8 -7860.5 -7836.2 
-7881 -7843.9 -7897.6 -7870.6 -7902.6 -7878 -7936 -7877.1 -7947.3 
-7894.4 -7931.3 -7865.7 -7921.4 -7891.7 -7893.4 -7841.6 -7891.2 -7791.2 
-7827.9 -7673.5 -7692.2 -7539.8 -7629.8 -7314.2 -7464.8 -7053.3 -7175 
-6727.1 -6928.9 -6468.5 -6594.2 -6316.8 -6269.3 -6309.5 -6367.9 -6435 
-6418.1 -6650.5 -6607.3 -6848.4 -6773.2 -7091.6 -6979.6 -7724.2 -7840.3 
-7440 -7585.8 -7150.4 -7294.9 -6956.9 -7064 -6771.6 -6832.5 -6513.6 
-6614.7 -6393.3 -6519.2 -6281.8 -6303.3 -6223.3 -6181.1 -6619.2 -6449 
-6954.8 -6805.5 -7150.6 -7024.2 -7403 -7308.9 -7876.5 -7779 -7887 
-7913.7 -7817.8 -7888.2 -7897.2 -7864.9 -7920.3 -7801.2 -7906.5 -7820.8 
-7844.6 -7874.6 -7837.1 -7872.7 -7606 -7696.4 -7316.6 -7456.7 -7188 
-7721 -7778.9 -7735.9 -7774.1 -7531.8 -7645 -7452.3 -7599.2 -7695.3 
-7883.5 -7848.9 -7873.4 -7861.8 -7860.1 -7853 -7908.5 -7872.6 -7889.1 
-7876.7 -7865.6 -7849.7 -7869.4 -7847.6 -7859.7 -7839.9 -7874.9 -7827.7 
-7878.1 -7815.6 -7885.5 -7812.3 -7860.1 -7824.2 -7894.8 -7842.5 -7860.7 
-7848.8 -7579.5 -7614.3 -7398.2 -7474.6 -7178 -7287 -6973.1 -7106.9 
-6772.5 -6882 -6333.3 -6598.7 -6186.8 -6224.7 -6351.1 -6215 -6553.2 
-6421.5 -6746.1 -6616.4 -6940.5 -6834.4 -7282.9 -7442.8 -7076.6 -7191 
-6826.6 -6967.1 -6563.5 -6680.3 -6461.3 -6520.1 -6209.4 -6287.3 -6098.6 
-6175.1 -6586.7 -6398.2 -6864.4 -6716.5 -7157.8 -6971.6 -7387.6 -7289.5 
-7903.7 -7882.4 -7922.9 -7881.1 -7919.7 -7886.1 -7907.3 -7914.6 -7941.3 
-7874.5 -7958 -7901.2 -7957.6 -7889.7 -7943.8 -7897 -7916.8 -7876.6 
-7900.2 -7843.5 -7880.6 -7829.9 -7857.5 -7829.5 -7882.9 -7675.3 -7770.4 
-7796.2 -7716.1 -7740.9 -7792.5 -7620.2 -7686.7 -7825.3 -7863.5 -7753.4 
-7452.3 -7562.6 -7463.2 -7509.5 -7760 -7784.5 -7185.4 -7309.7 -7822.6 
-7758.6 -7320.8 -7439 -6952.6 -7098.8 -7811 -7788 -7773.8 -7699 
-7803.2 -7741.5 -7811 -7756.7 -7834.1 -7789.8 -7830.7 -7817.2 -7801.8 
-7763.1 -7797.4 -7787.9 -7763.3 -7763.6 -7774.7 -7751.3 -7742 -7758.4 
-7776.8 -7705.8 -7069.6 -7201.2 -7442.9 -7323.7 -7684.9 -7556.7 -7827.7 
-7893.4 -7805.2 -7853.3 -7092.9 -7241.5 -6684.7 -6868 -6483.3 -6618.1 
-6189.9 -6329.1 -6175.3 -6093.4 -6374.4 -6285.6 -6572.8 -6486.8 -6792.2 
-6686.9 -6755.4 -6865.2 -6489.9 -6578 -6343.4 -6509.3 -6227.7 -6326.9 
-6260.1 -6018.1 -6604.6 -6406.6 -6910.1 -6720.6 -7152.5 -7040.3 -7437.7 
-7557.2 -7628.1 -7612.6 -7767.8 -7672.6 -7741.7 -7673 -7791.9 -7689.7 
-7801.8 -7715 -7797.4 -7701.3 -7777.2 -7714.6 -7784.8 -7676.4 -7722.1 
-7686 -7687.8 -7654 -7705.9 -7620.5 -7699.5 -7559.4 -7728.9 -7660.8 
-7704.8 -7492.9 -7554.4 -7478.5 -7746.2 -7694.7 -7747.2 -7565.1 -7639.7 
-7358.3 -7522.2 -7279.3 -7534.5 -7500.8 -7276.3 -7337 -7127.7 -6895.2 
-7023.1 -7295.3 -7117.4 -7534.4 -7392.6 -7668.5 -7720.4 -7657.9 -7656.3 
-7539.6 -7455 -7524.4 -7442 -7499 -7415.7 -7503.8 -7400.4 -7492.2 
-7442.3 -7493.6 -7428.7 -7491.5 -7422.6 -7466 -7425.8 -7525.4 -7416.5 
-7467.2 -7432 -7215.2 -7333.3 -7049.2 -7194.4 -6716.9 -6929.7 -6151 
-6600.5 -6265.9 -6157.6 -6485.3 -6394.7 -6583 -6540.8 -6770.1 -6669.2 
-6863.7 -6992.1 -6642.1 -6763.2 -6381.9 -6540.8 -6194.7 -6264.7 -6120.9 
-6080.2 -6511.2 -6395.8 -6842.6 -6722.6 -7112.9 -7006.7 -7661.3 -7672.7 
-7703.5 -7669.4 -7647.7 -7669.9 -7642.2 -7612.8 -7633.3 -7612.3 -7629 
-7583.6 -7671.6 -7620.7 -7671.2 -7602 -7721.2 -7644.6 -7660.8 -7661.5 
-7716.2 -7662.9 -7581.7 -7572.1 -7316.4 -7509.5 -7602.8 -7667.2 -7652.7 
-7507.1 -7539.3 -7414.9 -7554.2 -7503.4 -7400.6 -7405.7 -7196.5 -7290.5 
-7355.5 -7358.3 -7167.4 -7317.1 -7201.1 -7081.3 -6963.7 -7090.1 -6838.2 
-7305.4 -7251.6 -7304.7 -7215.4 -7307 -7203.9 -7352.1 -7274.3 -7335.3 
-7251.9 -7327.4 -7242.7 -7328.8 -7250.3 -7263.2 -7230.7 -7249.2 -7196.9 
-6999.2 -7219 -7541.3 -7530.4 -7628.9 -7510.6 -7625.5 -7557.4 -7593 
-7561.5 -7600 -7573.2 -7591 -7583.6 -7554.8 -7529.2 -7491.9 -7532.9 
-7546.8 -7434.3 -7552.1 -7521.4 -6853.8 -7002.2 -6659.5 -6725.6 -6144.8 
-6372.8 -6256.2 -6135.8 -6399.4 -6315.5 -6542.9 -6425.5 -6733.6 -6801.4 
-6965.2 -6531.7 -6609.9 -6401.7 -6464.1 -6249.6 -6288.9 -6138.6 -6180.8 
-6596.9 -6372.7 -6971.2 -6690.7 -7092.4 -7306.2 -7403.2 -7555.9 -7487.5 
-7370.8 -7188.4 -7249.2 -7105.9 -7001.8 -6779.5 -6838.9 -6582.6 -6672.7 
-6407.1 -6490.3 -7278.4 -7313.9 -7425.9 -7387.5 -7364 -7353.6 -6358.8 
-6292 -7378.1 -7270.3 -7039.2 -7189.7 -6838.4 -6955.1 -6683.9 -7104.4 
-7011.4 -7191 -7339.8 -7076.6 -7383.5 -7289.3 -7425.3 -7323.2 -7385.5 
-7334.1 -7418.3 -7368 -7426.3 -7366.6 -7433.8 -7354.7 -6234.6 -6224.6 
-6604.5 -6395.3 -6945.1 -6747.6 -7077.4 -7033.4 -7075.9 -7008.9 -7084.2 
-7000.3 -7121.6 -7029.2 -7113.7 -7038.1 -7092.2 -7027.2 -6983.3 -7164.4 
-6596.2 -6771 -6254.8 -6413.9 -6213.9 -6237.5 -6314.9 -6280.1 -6435.1 
-6399.3 -7315.2 -7183.9 -7217.9 -7252.1 -7017.5 -7039.1 -6917.2 -7079.9 
-7173.6 -7042.2 -7234.4 -7165.6 -7307.7 -7217.7 -7245.4 -7195.3 -7223.1 
-7122 -6880.9 -6830.9 -6600.7 -6674.7 -6500.8 -6494.9 -6363.4 -6706 
-6801.9 -6587.3 -6988.4 -7043.5 -7336.3 -7190.2 -6856.6 -6787 -7300.7 
-7254.1 -6913.1 -6835.5 -6885.4 -6848.2 -6862.7 -6835.4 -6887.2 -6837.7 
-6877.6 -6821.4 -6720.2 -6717 -6399.4 -6446.7 -6294.3 -6286.3 -6424 
-6282.1 -6225.4 -6287.8 -6279.6 -6235 -6545.1 -6441 -6611.6 -6665.6 
-7012.5 -6941.5 -6653.6 -6811.3 -6863.4 -6789.2 -6794.5 -6843.5 -6939 
-6697.7 -6421.8 -6491.5 -6323.9 -6361.5 -7171.3 -6988.8 -7005.7 -6718.6 
-6643.5 -6376 -6385.3 -6696.4 -6599.3 -6718.7 -6614.1 -6138.3 -6287.1 
-6204.4 -6233.7 -6662.4 -6648.4 -6701.3 -6624.5 -7276.5 -7210.4 -7206.8 
-6282.9 -6230.7 -6587.1 -6499.7 -6398.7 -6192 -7034.3 -6934.2 -6970.9 
-7013.5 -6965.8 -6695.4 -6712.3 -6655.1 -6518.4 -6590.2 -6743.2 -6580.4 
-6720.8 -6785.7 -6405.2 -6489.8 -6497.1 -6480.6 -6317.3 -6331.2 -6229.4 
-6949.1 -7010.1 -6842.1 -7077.3 -6947.6 -6501.7 -6500.9 -6501.8 -6471.4 
-6538.7 -6492.9 -6512.4 -6462.2 -6497.1 -6751.2 -6317.6 -6454.6 -6197 
-6353.8 -6147 -6158.2 -6827.9 -6878.5 -6547.5 -6978.9 -6324.7 -6378 
-6213.5 -6708.8 -6662.8 -6523.3 -6277.9 -6756.8 -6823 -6336.2 -6401.8 
-6195.2 -6837.6 -6767.2 -6739.3 -6369.8 -6339.2 -6382.8 -6325.9 -6437.7 
-6547.9 -6171.1 -6268.9 -6421.3 -6489.1 -6353 -6237.8 -6162.6 -6135.9 
-6271.7 -6282 -6158.6 -6207.7 -6341.4 -6155 -6494.5 -6594.1 -6499.1 
-6565.9 -6249 -6032.3 -6379.4 -5667.1 -6770.2 -7423.9 -7853.6 -8379.7 
-8336.2 -8398.6 -8572.5 -8755.7 -8706.6 -8721.7 -8802.1 -8902.3 -8871.7 
-8876.4 -8921.8 -8985.6 -8968.7 -8970.5 -9002.4 -9043.7 -9034.1 -9035.1 
-9060.2 -9094.8 -9086.2 -9077.5 -9099.9 -9121.7 -9095.6 -9109.2 -9141.1 
-9117.9 -9114.6 -9098.7 -9093.6 -8726.2 -8685.8 -8724.7 -8773 -8813.4 
-9127 -9348.3 -8828 -9168.6 -9576.6 -8837.2 -9183.4 -9605.9 -8956.5 
-9178.5 -9651.9 -8958.4 -9178.1 -9695.3 -8907.4 -9193.6 -9633.8 -8877.7 
-9186.1 -9669.9 -8838.1 -9161 -9656.7 -8756.5 -9161.2 -9724.6 -8650.4 
-9195.8 -9609.5 -8719.4 -9192.5 -9544.1 -8716.1 -9171.4 -9498.3 -8662.1 
-9162.8 -9471.3 -8673.2 -9176.1 -9406.8 -8693 -9190.1 -9413.1 -8751.1 
-9191.5 -9519.3 -8804.9 -9176.5 -9528.7 -8841.7 -9187.3 -9538.5 -8835.2 
-9187.3 -9566.8 -8837.4 -9144.1 -9373.5 -8344.9 -8091.9 -7963.4 -7965.7 
-8688 -8571.1 -8551.9 -8644.7 -8860.5 -8810.5 -8812.7 -8869.4 -8958.5 
-8934.7 -8941.4 -8970.3 -9019.6 -9011.8 -9020.8 -9039.2 -9065.2 -9065.4 
-9075.9 -9089 -9111.2 -9103.9 -9119.8 -9127.2 -9160 -9133.5 -9128.5 
-9149.7 -9110.4 -9114.9 -9139.4 -9152.1 -8945.3 -8976.5 -8909.4 -8881.3 
-8768.4 -9163.5 -9181.1 -8922.2 -9170 -9188.5 -8972.6 -9179.3 -9224.4 
-8984.9 -9150.4 -9189.6 -8958.4 -9178.3 -9181.9 -8947.9 -9197.5 -9193 
-8872.9 -9208.8 -9220 -8974.6 -9196.7 -9169.4 1296.3 2952.1 3083.2 
1640.4 -8449.3 -8297.6 -8293.8 -8423.9 -8715.4 -8679.3 -8685.7 -8717.3 
-9069.3 -9106.6 -9113.9 -9096.4 -9023.4 -9024.7 -9030.2 -9039.2 -9068.4 
-9065.4 -9067.9 -9073 -9126.4 -9107.8 -9108.4 -9117.3 -9173.4 -9150.1 
-9150.1 -9161.9 -9124 -9116.3 -9117.9 -9133.5 -8724.9 -8722.7 -8721.2 
-8733.5 -5280.2 -4729.2 -4694.6 -5342 -8280.7 -8166.3 -8173.1 -8306.8 
-8713 -8628.2 -8630.6 -8718.8 -8889.7 -8851.9 -8852.5 -8889.2 -8976 
-8954 -8954.7 -8974.7 -9035.4 -9023.6 -9025.4 -9037.8 -9078.3 -9071.3 
-9074.2 -9098.4 -9140 -9130.6 -9133 -9158.8 -9123.4 -9109.5 -9110.1 
-9117.4 -8695.7 -8669 -8666.8 -8668 -8722.6 -9142 -9277.2 -8748.2 
-9173.9 -9459.3 -8748 -9191.5 -9507 -8752 -9196.6 -9522.5 -8747.7 