# vtk DataFile Version 4.2
vtk output
ASCII
DATASET UNSTRUCTURED_GRID
POINTS 8741 float
-51.0212 -42.463 31.6828 -51.0218 -30.4629 31.6729 -51.0246 30.537 31.623 
-51.0252 42.537 31.6132 -47.0318 46.537 31.3836 -35.051 46.537 30.7045 
25.8513 46.537 27.2528 37.832 46.537 26.5738 41.8258 42.537 26.3507 
41.8264 30.537 26.3606 41.8292 -30.4629 26.4105 41.8298 -42.463 26.4203 
37.8363 -46.463 26.6499 25.8556 -46.463 27.329 -47.0275 -46.463 31.4597 
-35.0467 -46.463 30.7807 25.3137 46.5292 17.7681 24.1254 46.512 -3.19829 
36.1062 46.512 -3.87731 37.2945 46.5292 17.089 -35.5886 46.5292 21.2198 
-47.5693 46.5292 21.8988 -48.7576 46.512 0.93245 -36.7769 46.512 0.25342 
41.2882 42.5292 16.866 -51.5627 42.5292 22.1284 40.0999 42.512 -4.10038 
40.1005 30.512 -4.09056 41.2888 30.5292 16.8758 -51.5622 30.5292 22.1382 
-52.7505 30.512 1.17189 -52.751 42.512 1.16207 41.2916 -30.4707 16.9257 
-51.5593 -30.4707 22.1882 40.1033 -30.488 -4.04063 40.1039 -42.4879 -4.03081 
41.2922 -42.4707 16.9355 -51.5588 -42.4707 22.198 -52.7471 -42.4879 1.23164 
-52.7477 -30.488 1.22182 37.2988 -46.4707 17.1651 -47.565 -46.4707 21.9749 
36.1105 -46.4879 -3.80119 24.1297 -46.4879 -3.12217 25.318 -46.4707 17.8442 
-35.5843 -46.4707 21.2959 -36.7725 -46.4879 0.32954 -48.7533 -46.4879 1.00857 
-35.5852 -26.4707 21.2795 -31.5914 -30.4707 21.0564 -31.5908 -42.4707 21.0663 
21.3242 -42.4707 18.0672 21.3237 -30.4707 18.0574 25.3171 -26.4707 17.8278 
37.2979 -26.4707 17.1488 37.2954 26.5292 17.1054 25.3146 26.5292 17.7844 
21.3209 30.5292 18.0075 21.3203 42.5292 17.9977 -31.5948 42.5292 20.9967 
-31.5942 30.5292 21.0065 -35.5876 26.5292 21.2361 -47.5684 26.5292 21.9152 
-47.5659 -26.4707 21.9585 46.7661 30.4784 -45.5341 46.7653 46.4784 -45.5472 
37.7793 55.4784 -45.0453 21.805 55.4784 -44.1399 21.8054 46.4784 -44.1326 
17.812 42.4784 -43.903 17.812 41.6784 -43.9023 -8.64551 41.6784 -42.4028 
-8.64502 31.2784 -42.3943 17.8125 31.2784 -43.8938 17.8125 30.4784 -43.8931 
21.8063 26.4784 -44.1162 22.605 26.4784 -44.1615 22.6063 -0.02158 -44.1398 
32.9896 -0.02158 -44.7283 32.9884 26.4784 -44.75 37.7805 30.4784 -45.0248 
33.7871 26.4784 -44.7952 34.8047 46.4931 -26.8404 22.8239 46.4931 -26.1614 
22.8235 55.4931 -26.1688 38.7979 55.4931 -27.0742 47.7839 46.4931 -27.576 
47.7846 30.4932 -27.563 38.7985 42.4931 -27.0635 38.799 30.4932 -27.0537 
24.1254 46.512 -3.19829 20.132 42.512 -2.96867 20.1325 30.512 -2.95885 
24.1263 26.512 -3.18192 36.1071 26.512 -3.86094 40.1005 30.512 -4.09056 
36.1062 46.512 -3.87731 40.0999 42.512 -4.10038 18.4915 31.2882 -31.913 
18.4911 41.6882 -31.9215 -7.966 31.2882 -30.4135 -7.96648 41.6882 -30.422 
33.6674 26.4882 -32.7692 23.2841 26.4882 -32.1807 33.6686 -0.01175 -32.7475 
23.2853 -0.01175 -32.159 20.132 42.512 -2.96867 20.1325 30.512 -2.95885 
24.1263 26.512 -3.18192 36.1071 26.512 -3.86094 -50.278 26.4784 -40.0307 
-50.2767 -0.02158 -40.009 -39.8934 -0.02158 -40.5975 -39.8946 26.4784 -40.6192 
-39.0959 26.4784 -40.6645 -35.1025 30.4784 -40.8941 -35.1026 31.2784 -40.8948 
-8.64502 31.2784 -42.3943 -8.64551 41.6784 -42.4028 -35.103 41.6784 -40.9033 
-35.1031 42.4784 -40.9039 -39.0969 46.4784 -40.6809 -39.0973 55.4784 -40.6882 
-55.0716 55.4784 -39.7829 -64.0568 46.4784 -39.2662 -64.0561 30.4784 -39.2531 
-55.0705 30.4784 -39.7624 -51.0767 26.4784 -39.9855 -63.0375 30.4932 -21.282 
-63.0383 46.4931 -21.2951 -54.0531 55.4931 -21.8117 -38.0787 55.4931 -22.7171 
-38.0783 46.4931 -22.7097 -50.0591 46.4931 -22.0307 -54.0525 42.4931 -21.8011 
-54.0519 30.4932 -21.7912 -36.7769 46.512 0.25342 -32.7831 42.512 0.03036 
-32.7825 30.512 0.04018 -36.7759 26.512 0.26979 -48.7567 26.512 0.94882 
-52.7505 30.512 1.17189 -48.7576 46.512 0.93245 -52.751 42.512 1.16207 
-34.4235 31.2882 -28.914 -34.424 41.6882 -28.9225 -7.96648 41.6882 -30.422 
-7.966 31.2882 -30.4135 -49.599 26.4882 -28.05 -39.2156 26.4882 -28.6385 
-39.2144 -0.01175 -28.6168 -49.5977 -0.01175 -28.0283 -32.7831 42.512 0.03036 
-32.7825 30.512 0.04018 -36.7759 26.512 0.26979 -48.7567 26.512 0.94882 
32.9908 -26.5216 -44.7066 32.9896 -0.02158 -44.7283 22.6063 -0.02158 -44.1398 
22.6075 -26.5216 -44.1181 21.8088 -26.5216 -44.0728 17.8154 -30.5216 -43.8432 
17.8154 -31.3216 -43.8425 -8.64212 -31.3216 -42.343 -8.64164 -41.7216 -42.3345 
17.8159 -41.7216 -43.834 17.8159 -42.5216 -43.8334 21.8097 -46.5216 -44.0564 
21.8101 -55.5216 -44.0491 37.7845 -55.5216 -44.9544 46.7697 -46.5216 -45.4711 
46.7689 -30.5216 -45.4842 37.7833 -30.5216 -44.9749 33.7896 -26.5216 -44.7519 
47.7874 -30.5068 -27.513 47.7882 -46.5068 -27.4999 38.803 -55.5068 -26.9833 
22.8287 -55.5068 -26.0779 22.8283 -46.5068 -26.0853 34.809 -46.5068 -26.7643 
38.8024 -42.5068 -26.9939 38.8019 -30.5068 -27.0038 24.1297 -46.4879 -3.12217 
20.1359 -42.4879 -2.8991 20.1354 -30.488 -2.90892 24.1288 -26.488 -3.13854 
36.1096 -26.488 -3.81756 40.1033 -30.488 -4.04063 36.1105 -46.4879 -3.80119 
40.1039 -42.4879 -4.03081 18.4944 -31.3117 -31.8618 18.4949 -41.7117 -31.8533 
-7.96261 -41.7117 -30.3538 -7.9631 -31.3117 -30.3623 33.6699 -26.5117 -32.7258 
23.2865 -26.5117 -32.1373 23.2853 -0.01175 -32.159 33.6686 -0.01175 -32.7475 
20.1359 -42.4879 -2.8991 20.1354 -30.488 -2.90892 24.1288 -26.488 -3.13854 
36.1096 -26.488 -3.81756 -48.7542 -26.488 0.9922 -36.7735 -26.488 0.31318 
-32.7797 -30.488 0.09011 -32.7791 -42.4879 0.09993 -39.0935 -26.5216 -40.6211 
-51.0742 -26.5216 -39.9421 -50.2755 -26.5216 -39.9874 -49.5965 -26.5117 -28.0066 
-39.2132 -26.5117 -28.5951 -39.8922 -26.5216 -40.5758 -35.0991 -42.5216 -40.8344 
-35.0997 -30.5216 -40.8442 -35.0997 -31.3216 -40.8435 -34.4206 -31.3117 -28.8627 
-34.4202 -41.7117 -28.8542 -35.0992 -41.7216 -40.835 -54.0485 -42.5068 -21.7315 
-54.0491 -30.5068 -21.7413 -50.0548 -46.5068 -21.9546 -38.074 -46.5068 -22.6336 
-49.5977 -0.01175 -28.0283 -39.2144 -0.01175 -28.6168 -39.8934 -0.02158 -40.5975 
-50.2767 -0.02158 -40.009 -7.9631 -31.3117 -30.3623 -7.96261 -41.7117 -30.3538 
-8.64212 -31.3216 -42.343 -8.64164 -41.7216 -42.3345 -38.0736 -55.5068 -22.6262 
-54.048 -55.5068 -21.7208 -63.034 -46.5068 -21.219 -63.0347 -30.5068 -21.232 
-64.0532 -30.5216 -39.2032 -55.0676 -30.5216 -39.7125 -64.0525 -46.5216 -39.1901 
-39.0925 -46.5216 -40.6047 -39.0921 -55.5216 -40.5974 -55.0665 -55.5216 -39.692 
-48.5557 -46.1585 31.5461 -49.8514 -45.2914 31.6188 -50.7172 -43.9937 31.6668 
-51.0214 -39.463 31.6803 -51.0215 -36.463 31.6779 -51.0216 -33.463 31.6754 
-51.0219 -27.413 31.6704 -51.0221 -24.3629 31.6679 -51.0222 -21.313 31.6654 
-51.0224 -18.263 31.663 -51.0225 -15.213 31.6605 -51.0226 -12.163 31.658 
-51.0228 -9.11296 31.6555 -51.0229 -6.06296 31.653 -51.0231 -3.01297 31.6505 
-51.0232 0.03703 31.648 -51.0233 3.08703 31.6455 -51.0235 6.13703 31.643 
-51.0236 9.18703 31.6405 -51.0238 12.237 31.638 -51.0239 15.287 31.6355 
-51.0241 18.337 31.633 -51.0242 21.387 31.6305 -51.0243 24.437 31.628 
-51.0245 27.487 31.6255 -51.0248 33.537 31.6206 -51.0249 36.537 31.6181 
-51.025 39.537 31.6156 -50.7213 44.0677 31.5947 -49.8556 45.3654 31.5446 
-48.56 46.2325 31.4704 -44.0366 46.537 31.2138 -41.0414 46.537 31.0441 
-38.0462 46.537 30.8743 -32.0059 46.537 30.532 -28.9608 46.537 30.3594 
-25.9157 46.537 30.1868 -22.8706 46.537 30.0142 -19.8254 46.537 29.8416 
-16.7803 46.537 29.669 -13.7352 46.537 29.4965 -10.6901 46.537 29.3239 
-7.64498 46.537 29.1513 -4.59987 46.537 28.9787 -1.55476 46.537 28.8061 
1.49035 46.537 28.6335 4.53547 46.537 28.4609 7.58058 46.537 28.2883 
10.6257 46.537 28.1158 13.6708 46.537 27.9432 16.7159 46.537 27.7706 
19.761 46.537 27.598 22.8061 46.537 27.4254 28.8465 46.537 27.0831 
31.8416 46.537 26.9133 34.8368 46.537 26.7436 39.3603 46.2325 26.4874 
40.656 45.3654 26.4147 41.5217 44.0677 26.3667 41.8259 39.537 26.3532 
41.8261 36.537 26.3556 41.8262 33.537 26.3581 41.8265 27.487 26.3631 
41.8266 24.437 26.3656 41.8268 21.387 26.368 41.8269 18.337 26.3706 
41.8271 15.287 26.3731 41.8272 12.237 26.3755 41.8274 9.18703 26.378 
41.8275 6.13703 26.3805 41.8276 3.08703 26.383 41.8278 0.03703 26.3855 
41.8279 -3.01297 26.388 41.8281 -6.06296 26.3905 41.8282 -9.11296 26.393 
41.8283 -12.163 26.3955 41.8285 -15.213 26.398 41.8286 -18.263 26.4005 
41.8288 -21.313 26.403 41.8289 -24.3629 26.4055 41.829 -27.413 26.408 
41.8293 -33.463 26.413 41.8295 -36.463 26.4154 41.8296 -39.463 26.4179 
41.5258 -43.9937 26.4388 40.6602 -45.2914 26.4889 39.3646 -46.1585 26.5631 
34.8411 -46.463 26.8197 31.846 -46.463 26.9894 28.8508 -46.463 27.1592 
22.8105 -46.463 27.5015 19.7653 -46.463 27.6741 16.7202 -46.463 27.8467 
13.6751 -46.463 28.0193 10.63 -46.463 28.1919 7.58489 -46.463 28.3645 
4.53978 -46.463 28.5371 1.49467 -46.463 28.7096 -1.55044 -46.463 28.8822 
-4.59556 -46.463 29.0548 -7.64067 -46.463 29.2274 -10.6858 -46.463 29.4 
-13.7309 -46.463 29.5726 -16.776 -46.463 29.7451 -19.8211 -46.463 29.9177 
-22.8662 -46.463 30.0903 -25.9113 -46.463 30.2629 -28.9565 -46.463 30.4355 
-32.0016 -46.463 30.6081 -38.0419 -46.463 30.9504 -41.0371 -46.463 31.1202 
-44.0323 -46.463 31.2899 25.4929 46.5318 20.9296 25.6721 46.5344 24.0912 
24.2952 46.5145 -0.20309 24.4649 46.5169 2.7921 24.6347 46.5194 5.78729 
24.8044 46.5219 8.78248 24.9742 46.5243 11.7777 25.1439 46.5268 14.7729 
27.1206 46.512 -3.36804 30.1158 46.512 -3.5378 33.111 46.512 -3.70756 
36.2759 46.5145 -0.88212 36.4457 46.5169 2.11307 36.6154 46.5194 5.10826 
36.7852 46.5219 8.10346 36.9549 46.5243 11.0986 37.1247 46.5268 14.0938 
37.4737 46.5318 20.2506 37.6528 46.5344 23.4122 -35.4094 46.5318 24.3814 
-35.2302 46.5344 27.5429 22.2686 46.5292 17.9406 19.2235 46.5292 18.1132 
16.1784 46.5292 18.2858 13.1332 46.5292 18.4584 10.0881 46.5292 18.631 
7.04301 46.5292 18.8036 3.9979 46.5292 18.9762 0.95279 46.5292 19.1487 
-2.09232 46.5292 19.3213 -5.13743 46.5292 19.4939 -8.18255 46.5292 19.6665 
-11.2277 46.5292 19.8391 -14.2728 46.5292 20.0117 -17.3179 46.5292 20.1843 
-20.363 46.5292 20.3568 -23.4081 46.5292 20.5294 -26.4532 46.5292 20.702 
-29.4983 46.5292 20.8746 -32.5434 46.5292 21.0472 -47.3901 46.5318 25.0604 
[...]
CELL_DATA 12638
SCALARS cell_scalars float
LOOKUP_TABLE default
-6254.1 -6099.4 -6487 -6685.6 -5967.3 -6360.6 -6342.8 -6363.6 -6766.8 
-6556.7 -6975.8 -6433.6 -6610.6 -5889.1 -6025.6 -5315.6 -5680.1 -4922.7 
-5659.7 -5677.5 -6356.4 -6269.4 -6686.8 -6467 -6910.5 -6360.9 -6513.3 
-5799.1 -5972.5 -5266.3 -5635.8 -4929.5 -5692.4 -5679.8 -6325.1 -6226.2 
-6742.5 -6545.9 -6907.8 -6330.5 -6482.6 -5753.4 -5971.8 -5176.5 -5511.3 
-5034.6 -5714.2 -5726 -6338.7 -6255.7 -6820.5 -6605.2 -6854.9 -6290 
-6450.3 -5706 -5869.2 -5119.6 -5559.5 -5031.3 -5665.8 -5640.3 -6335.3 
-6280.9 -6934.5 -6991.2 -6731.1 -7105.9 -7144.3 -6704.1 -6976.5 -6594.2 
-6954 -6555.7 -6957 -6534.1 -6930.9 -6545 -6924.1 -6520.9 -6911.6 
-6540.9 -6910 -6507 -6907.6 -6509.9 -6888.7 -6515.6 -6910.7 -6509.9 
-6926.7 -6520.8 -6905.5 -6513.1 -6909.9 -6535.8 -6898.7 -6534.8 -6895.9 
-6520.6 -6926.5 -6549.2 -6941 -6550.7 -6932.7 -6560.7 -6944.3 -6564.8 
-6947.7 -6579.3 -6936.2 -6582.5 -6948.9 -6600.5 -6938.8 -6599 -6944.7 
-6572 -6921.4 -6589.9 -6906 -6570.1 -6922.3 -6637.3 -6998.8 -6757.9 
-7135.2 -7132.4 -6843.9 -7116.8 -7073.2 -6543.7 -6603.7 -5993.9 -6045.6 
-5139.3 -5360.7 -5054.2 -5772.8 -5503.4 -6218.8 -6115.1 -6702.6 -6539.1 
-6859 -6389.1 -6487.1 -5879.9 -5910.3 -5195.1 -5486.8 -5082.7 -5824.7 
-5582.7 -6261.8 -6127.9 -6746.9 -6627.2 -6822.3 -6377 -6549.3 -5911.7 
-5960.8 -5127.4 -5493.1 -5101.7 -5770.8 -5572.9 -6267.9 -6138.9 -6760.6 
-6565.2 -6756.7 -6323.9 -6538.9 -5863.2 -5915.1 -5155.6 -5592.9 -5241.4 
-5883.4 -5614.9 -6342.5 -6170.2 -6792.6 -6632.5 -6920.9 -6556.9 -6869.8 
-6748.7 -6343.1 -6533.8 -6613.3 -6199.3 -6563.4 -6051.9 -6457.4 -6161.6 
-6479.2 -6112.3 -6401.9 -6082.4 -6445.7 -6106.6 -6416.9 -6104.9 -6458.1 
-6115.2 -6462.8 -6080.4 -6435.9 -6098.4 -6440.8 -6135.5 -6441.6 -6059.2 
-6441.8 -6074.4 -6432.7 -6075.9 -6397.7 -6058.3 -6412.4 -6081.5 -6415.1 
-6064.8 -6371.2 -6034.6 -6414.8 -6022.3 -6398.7 -6027.6 -6352.8 -6036.8 
-6330.6 -6005 -6345 -6036.3 -6286 -5956.2 -6313.1 -5955.6 -6278.5 
-5923.6 -6312.9 -5894.8 -6247.7 -5744.5 -5833.5 -6173.4 -6142.9 -6246.4 
-6097.5 -6144.1 -6222.7 -6216.3 -5993.9 -6119 -6031.5 -6187.8 -6384.2 
-6362.8 -5734.6 -5927.5 -6352 -6270.8 -5906.8 -6139 -5339.7 -5555.4 
-4894.9 -5041.9 -4982.3 -4694.7 -5672.3 -5365.7 -6101 -5939.8 -6350.2 
-6132.5 -5912.8 -6183.3 -5352.7 -5593.5 -4837 -5063.2 -4989.6 -4881.2 
-5704.4 -5378.7 -6168.6 -5893.2 -6343.5 -6233.7 -5862.3 -6112.2 -5281.2 
-5529.3 -4819.1 -5008.5 -5022 -4841.2 -5684.4 -5352.9 -6147.3 -5931.2 
-6360.9 -6287.2 -5823.7 -6076.6 -5171.3 -5460.1 -4768.2 -4880 -5066.9 
-4627.6 -5960.2 -6117.4 -5795.7 -6057.2 -6126 -6114.4 -6146 -6098.5 
-6153.3 -6114.5 -6197.4 -6059.1 -6167.8 -6056.3 -6116.5 -6062.3 -6107.6 
-6061.2 -6103.2 -6080 -6102.9 -6046.3 -6094.8 -6039.2 -6086.8 -6061.6 
-6083 -6048.9 -6086.8 -6034 -6064.9 -6001 -6077.8 -6011.1 -6076.8 
-6000.2 -6057.6 -6025.8 -6068.9 -5983.2 -6051.8 -5987.7 -6058.8 -6008.8 
-6076.3 -6000 -6059.3 -5953 -6062.5 -6017.4 -6051.7 -5956.5 -6031.1 
-6140.7 -6000.7 -6072.7 -5928.5 -6104.2 -5908.7 -6071.9 -5889.3 -6166.3 
-5982.7 -6115.8 -6005.5 -6152.6 -6014.2 -6119.2 -5968.5 -6146.2 -6020.9 
-6133.2 -5989.8 -6135.1 -5998.8 -6150.3 -6044.7 -6182.6 -6015.2 -6180.3 
-6025.6 -6172.6 -6045.1 -6176.8 -6070.6 -6190.4 -6094.1 -6198.2 -6075.8 
-6243.6 -6097.2 -6227.3 -6106.7 -6196.2 -6112.6 -6205.2 -6044 -6160.1 
-6033 -6171.6 -6035.7 -6113.7 -6040.3 -6212.8 -6026.8 -5510.8 -5726.9 
-4763.9 -5078.3 -4925.1 -4795.5 -5439.7 -5174 -6045.7 -5729 -6288.2 
-6232.6 -5974.5 -6139.2 -5434 -5726 -4798.6 -5020.4 -4945.4 -4716.4 
-5486 -5171.1 -6084.6 -5733.7 -6304.4 -6266.6 -6000.5 -6200.4 -5472.5 
-5805.6 -4744.2 -5147.7 -5014.8 -4771.4 -5543.7 -5227.3 -6138.4 -5799.9 
-6173.1 -6269.8 -6011.7 -6083.4 -5445.7 -5657.4 -4737.1 -5021.7 -4942.9 
-4804.1 -5532.6 -5227 -6100.4 -5783.1 -6246.4 -6279.6 -5747.9 -6264.9 
-6154.6 -5918.1 -6112.9 -5406 -5853.6 -6256.1 -6280.3 -6027.4 -6180.9 
-5752.2 -5688.4 -5017.1 -5369.8 -5459.3 -5727 -4703.6 -4660.6 -6034.7 
-5939.4 -4949.6 -5181.6 -5128.8 -4842.9 -4737.2 -4827.7 -5445.9 -5116.3 
-5995.4 -5671.5 -6175 -6084.9 -6173.5 -6265.8 -5569.2 -5860 -5027 
-5254.7 -4736.3 -4821.1 -5395.1 -4999.5 -5922.2 -5700.4 -6221 -6100.7 
-6094.2 -6293.3 -5488.2 -5775.7 -4943.3 -5197.4 -4704.3 -4765.3 -5434.2 
-5089.9 -5994.5 -5710.4 -6307.3 -6157.5 -6038.4 -6262.6 -5454.6 -5729.2 
-4921.3 -5150.2 -5671.9 -5353.4 -6234.9 -5961.1 -6127 -6264.3 -5731.5 
-5964.9 -5048.8 -5454.6 -4786.7 -4693.1 -5185.4 -4923.2 -5746.6 -5453.6 
-6261.1 -6034.1 -6108 -6216.7 -5677.7 -5904.4 -5070.4 -5396.4 -4905.8 
-4829 -5239.1 -5009.9 -5798 -5504.9 -6286.5 -6080.6 -6106.2 -6186.1 
-5765.3 -6010.4 -5084.7 -5496.7 -4759.9 -4760.3 -5235.6 -4999.1 -5709.2 
-5447.7 -4708 -4731.3 -6245.4 -5981.1 -6322.3 -6333.3 -6304.8 -6334 
-6285 -6337.3 -6317.1 -6338.5 -6320 -6370.3 -6281.1 -6390.6 -6255.4 
-6353.2 -6243.1 -6299.1 -6225.3 -6326.1 -6242.7 -6335.9 -6226.9 -6326.1 
-6208.3 -6337.6 -6213.2 -6343.3 -6203 -6326 -6192.2 -6331.3 -6212.2 
-6312.7 -6208.5 -6337.8 -6213.1 -6339.9 -6218.3 -6351.6 -6234.3 -6339.3 
-6224.4 -6345.1 -6168.7 -6307.8 -6124.4 -6234.7 -6173.6 -6234.1 -5641.3 
-5597.3 -5637.3 -5501 -5686.3 -5549.7 -5696.6 -5519.1 -5612.2 -5492.2 
-5749.1 -5466 -5748.7 -5565.9 -5746.2 -5568.7 -5784.1 -5554 -5722.5 
-5618.7 -5808.2 -5617.5 -5747 -5618.3 -5765.1 -5638.3 -5793 -5680.2 
-5768.1 -5666.4 -5736.2 -5685.8 -5744.6 -5591.6 -5763.9 -5578.7 -5791.1 
-5581.8 -5763.4 -5600.8 -5776.3 -5611 -5816.7 -5699.7 -5816.4 -5695 
-5806.4 -5730.9 -5843.6 -5594.9 -5231.5 -6205.3 -6040.1 -6000.2 -6095.8 
-6256.1 -6148.4 -5763.3 -5759.2 -5392.2 -4987.2 -5277.4 -4776.6 -4948.2 
-5217.3 -4938.3 -4798.7 -4733.9 -5717.5 -5993.3 -6163 -5964 -5217.3 
-5395.2 -4834.9 -4970.4 -5331.1 -5074.5 -6191 -6023.5 -5222 -4979.7 
-5010.7 -4719.2 -5949.5 -5639 -6186.5 -6121.5 -5662.7 -5301.9 -6075.4 
-5896.1 -6229.9 -6115.3 -5822.2 -6102.5 -5225.4 -5510.8 -4736.6 -4967.2 
-5104.1 -4695.1 -5744.7 -5476.4 -6152.9 -5975 -6335.9 -6258.1 -5741.4 
-6072 -5167.2 -5481.1 -4698.9 -4888.1 -5100.7 -4610 -5743.3 -5488.4 
-6101.1 -5885.7 -6191.3 -6208.6 -5690.6 -5956.9 -5138.5 -5403.6 -4707.2 
-4921.6 -6275.8 -6206.1 -6032.4 -6178.8 -5544.2 -5793.6 -4799.2 -5207.9 
-4889 -4675.5 -5383.9 -5101.8 -5980.6 -5674.5 -6256.9 -6249.3 -5995.4 
-6172.7 -5489.8 -5850.2 -4713.8 -5215 -4900.7 -4705.6 -5442.3 -5149.2 
-6053.6 -5747 -6217.3 -6305.9 -5998.5 -6131.1 -5386.7 -5687.7 -4900 
-5105 -4984.8 -4861.8 -5423.6 -5160.6 -5998.4 -5679.6 -6133.6 -6013.2 
-6210.2 -5984.6 -6154.2 -6020.4 -6138.9 -5989.9 -6121 -5995.8 -6157 
-5975.9 -6179.7 -5980.3 -6185.2 -6010.5 -6195.9 -6002.9 -6212.7 -6039.6 
-6219.7 -6043.3 -6228.3 -6086.7 -6233.8 -6088 -6256.2 -6102.6 -6291.9 
-6140.1 -6318.9 -6170 -6318.9 -6180.7 -6292 -6169.4 -6308.1 -6133.5 
-6225.2 -6135.6 -6238.6 -6101.3 -5180.4 -5044.2 -5253.5 -4879.6 -5123.5 
-4918.5 -5009.3 -4819.9 -4990.4 -4874 -5111.8 -4789.6 -5087.1 -4770.8 
-5099.8 -4766.7 -5128.9 -4787.3 -5119.3 -4833.5 -5130.9 -4843.7 -5083.7 
-4857.7 -5151.3 -4903 -5242.8 -4949.4 -5228.9 -4968.6 -5263.7 -5051.4 
-5333.4 -5096.9 -5371.6 -5205.8 -5328 -5055.4 -5310.7 -5153.7 -5329.3 
-5143.3 -5415.7 -5074.8 -6143.3 -6195.5 -6292 -5435.7 -5110.9 -6221.1 
-6226.7 -6142.6 -4819.1 -4600.7 -5635.6 -5826.6 -4809.7 -4662.5 -4714 
-4631.9 -4744 -5421.1 -5675.9 -5712.4 -4930.6 -5194.8 -4820.4 -4770 
-5432.2 -5090.6 -5113.4 -4951.5 -5688.2 -5376.4 -6228.1 -5980 -5167.1 
-5343.3 -4796.9 -4786.6 -4906.7 -4777.4 -5812.9 -5684.2 -4703.3 -4612.1 
-4813.5 -4939.7 -5457.6 -5111.3 -5730.8 -5625.3 -5856.9 -5687.3 -6166.6 
-6245.6 -4633.4 -4579.2 -4917.2 -4846.2 -4764.9 -4699.3 -4630.6 -4733.4 
-4589.6 -4578.5 -4548.5 -4627.8 -4587 -4641.9 -4541.2 -4593.1 -4566.8 
-4617.3 -4594.8 -4673.7 -4580.9 -4681.4 -4598.3 -4673.5 -4647.6 -4684.1 
-4558.6 -4705.6 -4634.5 -4775.1 -5799 -5566.2 -5774.1 -5641.7 -5765.6 
-5614.2 -5768.1 -5603.4 -5809.5 -5618.7 -5807 -5624.7 -5797.3 -5622.1 
-5783 -5619.5 -5753.8 -5611.3 -5748.2 -5602.1 -5725.2 -5582 -5702.2 
-5577.5 -5683.6 -5547.6 -5664 -5548.2 -5689.8 -5512 -5974.7 -5702.2 
-6268.1 -6232.4 -5930.5 -6151.1 -5306.6 -5714.3 -4811.2 -4977.7 -5024.5 
-4874.4 -5539.6 -5273.5 -6136.8 -5836.9 -6197.9 -6324.9 -5868 -6060.7 
-5309.6 -5573.7 -4581.4 -4826 -5094.8 -4888.7 -5551.8 -5324.9 -6125.9 
-5849 -6135.3 -6286.9 -5148 -4830.7 -5753.5 -5538.1 -6015.1 -5993.1 
-6299.7 -6140.3 -5794.5 -6103 -5197.5 -5506.4 -4724 -4941 -5140.3 
-4772.2 -5846.2 -5464.8 -6176.5 -6002.4 -6290.7 -6260.3 -5695.7 -6012.6 
-5099.8 -5418.4 -4732.8 -4889.8 -5121.3 -4913.1 -5760.8 -5424.4 -4636.6 
-4698.9 -5678.5 -5543.3 -4724.7 -4692.2 -5678.2 -5492.5 -4658.8 -4723.2 
-5662.6 -5483.8 -4661.5 -4641.8 -5682.2 -5516.4 -6055.3 -5986.6 -5521.2 
-4733.9 -4946.3 -4767.8 -5117.6 -5304.6 -5388.1 -5221.6 -5008.1 -5342.3 
-4866.4 -4794.8 -5076.5 -4762.8 -4754.7 -4929.3 -5116.2 -4804 -5547.3 
-5428.2 -5196.1 -6022.6 -5669.1 -6272.1 -6254 -5234.5 -5107.2 -4845.9 
-4957.4 -5212.7 -5051 -5140.8 -5045.8 -5273.6 -5058 -5245.9 -5087.6 
-5249.6 -5049.6 -5249.9 -5129.3 -5251 -5105.7 -5276.7 -5086.8 -5261.2 
-5105.8 -5230 -5111.7 -5189.3 -5105.8 -5232 -5077.3 -5285.2 -5114.9 
-5334 -5176.2 -5347.1 -5217.7 -5342 -5208.7 -5303.8 -5214.5 -5297.1 
-5134.8 -4912.3 -5010 -5020.5 -5113.3 -4892.4 -5083.6 -4951.9 -5050.1 
-4870.7 -5076.3 -4921.9 -5043 -4897.9 -5048.1 -4865.6 -5045.9 -4891.9 
-5049.6 -4851.8 -5028.5 -4886.8 -5041.5 -4967 -5119.5 -4946.2 -5094.8 
-4932.9 -5057.2 -4870.4 -4979.6 -4845 -4953.9 -4866.4 -4946.1 -4789.8 
-4914.6 -5661 -5329.8 -6210.3 -5983.1 -6157.4 -6239.3 -5798.4 -5959.8 
-5111.1 -5439.5 -4671.9 -4688.3 -5170.7 -4906 -5756.9 -5424.8 -6295.6 
-6030.3 -6169 -6258.3 -5789.5 -5984.9 -5092.6 -5476.2 -4754.4 -4679.1 
-5211.2 -4928.8 -5879.4 -5532.5 -6286 -6157.7 -4826.4 -4900.7 -5357.8 
-4938.3 -5961.1 -5675 -6218.9 -6131 -6065.6 -6272.3 -5469.3 -5748.9 
-4997.9 -5217 -4724.6 -4837.9 -5435.5 -5042.2 -5866.7 -5666.9 -6216.3 
-6094.5 -6057.1 -6308.3 -5492.5 -5747.3 -4978.8 -5189.2 -4840.7 -4706.2 
-5351.9 -5103 -5213.4 -4871.5 -4946.9 -5387.3 -5160.9 -5121.3 -5128.9 
-4876.2 -5892.8 -6146.1 -5717.7 -6143.7 -6063.8 -5647.5 -5945.8 -4810.4 
-4753.6 -4763.8 -5338.6 -5425.8 -5722.7 -6258.6 -6023.2 -4874.3 -4780.2 
-4746.7 -4670.8 -4833 -4797.5 -4737.4 -4782.3 -4826.9 -4729.4 -4781.6 
-4674.3 -4754.5 -4671.7 -4821.2 -4727.1 -4815.9 -4749.4 -4895.6 -4781.5 
-4911 -4893.5 -4966 -4856.8 -4908.7 -4827.7 -4932.7 -4808.4 -4983.4 
-4801.9 -4944.5 -4933.7 -4913.9 -4785.3 -5376 -5560.7 -5469.7 -5618.6 
-5419.9 -5596 -5424.9 -5609.3 -5446.8 -5618.7 -5432.5 -5619.2 -5455 
-5602.8 -5412.9 -5568.8 -5403.3 -5573.3 -5393.7 -5524.9 -5319.2 -5518.4 
-5284.6 -5438 -5282.2 -5450.2 -5259.6 -5425.5 -5298.8 -5483.5 -5255.8 
-5434.6 -5280.6 -5411.1 -5979.3 -5707.3 -6225.2 -6256.7 -5879.1 -6101.8 
-5358 -5684.9 -4819.6 -5013.8 -4975.5 -4871.6 -5462.3 -5215.2 -6077.6 
-5787.8 -6262.4 -6331.4 -5980.8 -6144.2 -5424.7 -5706.3 -4583.6 -5063.6 
-4992.7 -4763.8 -5511 -5241.5 -6092.7 -5787.1 -5153.1 -4669.5 -4668.8 
-5801.6 -5505.5 -6087.1 -5988.2 -6270.7 -6153.8 -5776.8 -6111 -5216 
-5509.5 -4687.8 -4953.3 -5180.9 -4622.8 -5820.7 -5526.1 -6180.1 -6048.7 
-6295.7 -6275.6 -5703.9 -6008.9 -5117.3 -5381.7 -4611.3 -4863.8 -5168.1 
-4693.5 -4850 -4894.7 -5368.9 -5675 -5528.2 -5220.3 -5060.9 -5227.1 
-5050.2 -5015.7 -5481.8 -4774.5 -5105.5 -5891.8 -6077.9 -4791.7 -4958.6 
-6079.4 -6255.2 -5782.2 -5929.7 -5484.8 -4775.2 -4859.7 -4894.6 -5256 
-4788.4 -5002.3 -4901.1 -5046.1 -4953.3 -5081.7 -4937 -5075.9 -4889.1 
-5134.1 -4751.2 -5013.5 -4826.1 -5065.3 -4844.2 -4983.6 -4856.3 -5052 
-6258.4 -6160.1 -5979.1 -6098.4 -4888.7 -5115.1 -5003 -5250.9 -5058.8 
-5264 -6237.9 -5966.5 -5748.6 -5999.9 -5710.7 -5911.5 -5731.1 -5880.4 
-5786.6 -5900 -5836.2 -5971.4 -5824.8 -5999.8 -5833.5 -6024 -5852.4 
-6023.9 -5847.8 -5995.7 -5849.6 -5997.8 -5869.1 -5996.2 -5893.5 -6016.7 
-5890.1 -6057.2 -5969 -6116.9 -5970 -6128.3 -5950.8 -6141.2 -6167.1 
-6288.6 -5780.7 -5936.7 -5113.3 -5514.1 -4765.1 -4781.2 -5161.8 -4917.6 
-5782.7 -5468 -6326.2 -6075.2 -6090.8 -6270.3 -5644.7 -5925.3 -5023.8 
-5429.4 -4851.8 -4645 -5263 -5032.1 -5807.8 -5535.7 -5982 -5645.5 
-6177.1 -6075.5 -6093.4 -6312.2 -5522.6 -5811.5 -5001.6 -5227.8 -4654.8 
-4846.2 -5384.8 -4914.9 -5962.5 -5748.4 -6213.2 -6079.4 -6058 -6300.7 
-5447.7 -5776.3 -4967.7 -5233.6 -4733 -4797.2 -5233.5 -5841.9 -6087.2 
-5473.2 -5680.8 -5391.3 -5566.8 -5270.3 -5481.7 -5778.2 -5589.4 -6265.1 
-6289.5 -6284.8 -6266.3 -6245.6 -6088.3 -5961.6 -6261.1 -6184.8 -6084.7 
-5937.2 -6114.7 -5962.3 -6120.3 -5332.3 -5706.7 -4918.1 -6072.8 -5967 
-6249.9 -6319.6 -6217.2 -6284.5 -6263.8 -6323 -6274.8 -6314.4 -6310.7 
-6295.6 -6279.3 -6314 -6221.9 -6281.6 -6265.4 -6257.9 -6228.3 -6252.1 
-6262 -6256.3 -6284.8 -6255.8 -6291.9 -6286.1 -6324.8 -6305.3 -6279.4 
-6266.4 -5410.9 -5635.3 -4858.4 -5034.7 -4957.4 -4753.9 -5462.2 -5172.3 
-6011.5 -5738.4 -6299.5 -6226.4 -6021.2 -6145.2 -5565.6 -5783.2 -4841.9 
-5101.1 -4959.3 -4788.7 -5466.4 -5194.6 -6315.1 -6198.4 -5830 -6095 
-5210.9 -5552.8 -4792.4 -4962 -5041.6 -4832.2 -5744.5 -5458.8 -6124.2 
-5954.3 -6294.2 -6254.1 -5772.5 -6060.1 -5194.8 -5473.4 -4685.1 -4936.8 
-5407.3 -5468.7 -5441.1 -5633.5 -5455.8 -5570.4 -5585.6 -5666.7 -5584.5 
-5786.5 -5610.1 -5690.7 -5553.6 -5783.5 -5578.8 -5744.2 -5569.5 -5797.1 
-5598.7 -5789.5 -5482.9 -5680 -5494.3 -5746.3 -6303.4 -6045.7 -5789.6 
-5825.3 -5955.3 -6087.5 -6193 -5622.2 -5883.3 -6233.6 -6264.8 -6090.5 
-6202.7 -6128.1 -4905.6 -5277.7 -6210.3 -6153.7 -6106.4 -6306.2 -6250 
-6138.1 -4722.2 -4657.4 -5556.5 -5856 -6167.7 -6152.6 -5933.2 -5964.3 
-6184.5 -6062.9 -6240.5 -6148.1 -6197.4 -6106.9 -6166.9 -6126.1 -6139.3 
-6101.3 -6166.1 -6063.9 -6100.6 -6078 -6118.9 -6011.7 -6085.8 -6011.2 
-6091 -5991.7 -5781.3 -6072.1 -6184.8 -6250.4 -6061.6 -6148.5 -5810.8 
-5669.7 -5838.7 -5678.3 -5153.3 -4919 -5763.9 -5433.1 -6241.1 -6024.5 
-6120.8 -6237.7 -5816 -5996.5 -5145.6 -5577.7 -4755.2 -4793.7 -5155.5 
-4942.1 -5027.1 -5300.4 -4784.3 -4779.9 -5401.6 -5107.9 -5938.3 -5661.5 
-6221.2 -6107.1 -6073.4 -6254.5 -5460.1 -5768.7 -4972.8 -5162.8 -4820.1 
-5171.4 -5645.7 -5392.1 -5907.3 -6045.3 -5895.7 -5987.9 -5844.7 -5971.2 
-5926.3 -5981.1 -5870.5 -5988.1 -5955.9 -6012.8 -5950.2 -5978.8 -6027 
-6049.7 -6029.1 -6098.1 -6033.7 -6082.1 -5885.1 -6106 -5972.9 -5779.2 
-5956.1 -5126.7 -5420.6 -4894.3 -6071.6 -5862 -6014.7 -5307 -5611.4 
-4787.3 -5021.1 -4832.5 -6122.9 -6099.5 -6226 -6295.3 -5905.8 -5418.1 
-5726.1 -6253.7 -5979.7 -6127.7 -6234.5 -6060.4 -6017.5 -6065.9 -6107.5 
-6127.5 -6148.6 -6135.9 -6176 -6143.8 -6200.1 -6157.5 -6212.6 -6158.4 
-6184.6 -6156 -6185.6 -6163.4 -6188.8 -6144.3 -6212.1 -6122.2 -6182.3 
-6198.2 -6226 -4937.6 -4743.5 -5369.1 -5115.2 -5973.3 -5679 -6260.6 
-6225 -5992.5 -6172.2 -5331.8 -5723 -4643.4 -4984.8 -5055.2 -4878.2 
-5321.3 -5652.7 -4862.8 -5073.4 -5024.3 -4882.9 -5830.4 -5508.8 -6182.8 
-6046.7 -6293.6 -6239.4 -5824.8 -6090.6 -5278.1 -5521.5 -5877.7 -5813.1 
-5894.2 -5779.7 -5800.7 -5745.8 -5819.1 -5631.2 -5836.3 -5624.9 -5779.3 
-5629.4 -5826.6 -5586.8 -5870.3 -5722.5 -5846.6 -5728.3 -5769.3 -5637.3 
-5834 -5673.9 -5521.6 -5308.7 -4771.7 -5037.7 -5542.9 -5835.3 -5670.4 
-4999.6 -5279.1 -6224 -6123.8 -6198.5 -6323 -6270.5 -6041.9 -6276 
-4769.2 -4778.8 -5057.5 -6310.5 -6142 -5806.2 -5488.2 -5776.3 -5263.8 
-6279.1 -6150.6 -6327.4 -6156.3 -6342.6 -6168.6 -6339.5 -6205 -6257.9 
-6179.6 -6250.2 -6150.4 -6271.8 -6149.5 -6276 -6166.6 -6220.5 -6110.7 
-5133.4 -4845.9 -5336 -5272.6 -5463 -5195.8 -5482.7 -5304.6 -5416.5 
-5285.9 -5400.2 -5225.9 -5333.1 -5261.2 -5297.5 -5186.3 -5242.1 -5103.1 
-5293.3 -5024.5 -5205.4 -5103.2 -5697.1 -5413.1 -6205.5 -5985 -6233.2 
-6287.9 -5825.3 -6068.5 -5179.8 -5562.4 -4742.2 -4958.1 -5037.9 -5236.8 
-5594.4 -4757.9 -4805.9 -5356.8 -5118.1 -5941.3 -5702.1 -6178.8 -6074.8 
-6078.8 -6252.7 -5466.3 -5796.8 -5789.5 -6329.7 -4728 -5396.4 -5049.1 
-4655.7 -6034.8 -6188.8 -5825.8 -5615.6 -5136.8 -5290.4 -4761 -4867 
-5099 -4776.8 -4845.2 -4713.9 -4799.6 -4702.3 -4711.7 -4637 -5649.5 
-5459.7 -4849.2 -4808.9 -5746.4 -6076.5 -5160.8 -5502.7 -4859.7 -5872.4 
-5668.6 -4996.8 -4684.9 -5218 -4758.3 -4847.1 -4731 -4737.7 -4807.2 
-4769 -4866.2 -4598.4 -4871.3 -4729.6 -4861.7 -4806.6 -6103.5 -5929.2 
-6284.4 -6240.9 -5856.3 -6141.9 -5874.4 -5687.5 -5778.5 -5656.1 -5826.3 
-5671 -5850 -5676.5 -5845.1 -5681.2 -5803.2 -5656.1 -5364.9 -5036.1 
-6006.4 -5665.7 -6259.4 -6268.3 -6003.3 -6165 -5541.4 -5760.5 -4950.9 
-5235.3 -4786.6 -5063.9 -4899.4 -4871.3 -5596.2 -5707.4 -5456.9 -5263.1 
-5007.2 -5564.2 -4933.9 -5089.9 -4892.2 -5007.1 -4978.6 -5000.9 -4873 
-5048.8 -5338.7 -5176.9 -4728.4 -4919.4 -4901.7 -4780 -5402.9 -4936.9 
-5150.5 -4813.5 -5641.5 -5374.8 -4895.4 -4991.1 -5314.4 -5176.5 -4808.2 
-4922.8 -5373.9 -5176.2 -5364.6 -5241.1 -5328.7 -5237.4 -5365.7 -5205.6 
-5334.5 -5216.4 -6244.2 -5988.4 -6193.4 -6319.7 -5782.4 -6020.1 -5172.2 
-5589.4 -5950.2 -5672.8 -6196.1 -6091.3 -6144.7 -6285 -4815.3 -4865.7 
-5219.7 -5398.9 -6002.3 -5714.2 -5277.1 -5108.1 -5193.1 -5618.2 -5385.6 
-5899 -5100 -4781.7 -5630.3 -5406.3 -5215 -5416.9 -5302.6 -4974.3 
-4811 -6291.1 -6252.3 -4940.7 -4776.6 -4990.8 -4809 -6059.7 -5879.5 
-6048.9 -6198.7 -4927.4 -4820.9 -4933.2 -4842.7 -4910.2 -4985 -5032 
-5584.5 -5898 -4776.9 -4860.2 -6277.2 -6176.6 -5252.7 -5490.6 -5522.9 
-5318.6 -5412.9 -4960.5 -4998.9 -4850.4 -4743.6 -4689.2 -5782.7 -6260.1 
-5957.7 -5824.7 -5262.4 -4914.3 -4934.9 -4712.9 -5544.4 -5322.2 -5812.4 
-5429.4 -5288.7 -5707.2 -5235.1 -5436.1 -4746.6 -4819.9 -4799 -4940.7 
-4734.2 -4890 -4764.9 -4849.7 -6232.4 -5955.4 -6184.1 -6320.7 -5896.9 
-6038.9 -6151.9 -5999.2 -5768.5 -5709 -4724.5 -5451.2 -5606.5 -5436.9 
-5902.6 -6076.3 -6050.7 -6269.5 -6220.4 -5979.7 -5748.9 -5370.8 -5134.5 
-5741.8 -5795.1 -5936.8 -5921.6 -5369 -5481.3 -5248.5 -5476.5 -6295.1 
-6268.4 -6113.8 -6199.7 -5404.6 -6255.3 -5685.5 -5901 -5854.1 -6021.3 
-6092.3 -5788 -6056.8 -6025.1 -6260.5 -6170.4 -6269.4 -6232.2 -6329.3 
-6321.4 -6186.3 -6141.6 -6204.7 -6611.5 -6517.4 -6593.2 -6817.2 -7111.4 
-7040.5 -7073.2 -7174.9 -7289.6 -7258.4 -7267.1 -7315.9 -7386.8 -7367.9 
-7373.9 -7403.7 -7447.2 -7439.7 -7441.6 -7465.6 -7500.4 -7492.5 -7497.2 
-7506.1 -7536.9 -7527.8 -7537.2 -7551.5 -7564.4 -7558.8 -7552.7 -7580.6 
-7564.6 -7539.3 -7547.6 -7545.7 -7348 -7249 -7115.5 -7139.5 -7137 
-7584.4 -7692.4 -7228.8 -7611.7 -7972.5 -7302.1 -7632.9 -8068.5 -7304.5 
-7635.2 -8158 -7244.6 -7630.4 -8120.6 -7159.8 -7638.8 -8048.7 -7156 
-7626.6 -7946.6 -7159.7 -7634.7 -7967.1 -7257.3 -7627.9 -7987.8 -7324.2 
-7631.5 -8110.1 -7377.6 -7633.2 -8208.2 -7271.7 -7623.5 -8117.6 -7173.1 
-7630.9 -8012 -7124.1 -7622.5 -7912.5 -7153.6 -7634 -7901.7 -7263 
-7629.4 -7989 -7300 -7630.7 -8076 -7371.9 -7635.5 -8118.3 -7265 
-7615.9 -8077.7 -7178.2 -7601.3 -7786.7 -6741.2 -6316.6 -5680.3 -4696.8 
-7115.3 -6979.4 -6919.3 -6940.7 -7286.2 -7238.7 -7233 -7281.7 -7387.9 
-7371.7 -7380.2 -7411.9 -7456.2 -7454.9 -7467.2 -7490.4 -7511.2 -7512.1 
-7527.5 -7539.6 -7566 -7561.3 -7570.6 -7582.2 -7602.8 -7584.1 -7598.5 
-7612.7 -7570.5 -7582.5 -7588.1 -7609.6 -7176.1 -7206.6 -7276.6 -7366.4 
-7413.9 -7563.6 -7510.5 -7463 -7608.6 -7580 -7488.6 -7631.9 -7611.2 
-7499.7 -7605.7 -7609.5 -7538.1 -7635.7 -7643.6 -7514.3 -7661.2 -7647.4 
-7457.1 -7682.6 -7603 -7601.3 -7700.4 -7592 -6849.5 -6684.2 -6645.5 
-6751.2 -7132.2 -7071.2 -7068.5 -7123.7 -7293 -7249.6 -7245.7 -7282.9 
-7411.6 -7385.8 -7382.7 -7403.6 -7469.1 -7453.4 -7451.5 -7460.8 -7474.9 
-7468.5 -7468.3 -7467.3 -7485.4 -7484 -7483.7 -7476.7 -7513.8 -7511.6 
-7511.6 -7507.4 -7554.5 -7551.3 -7551.9 -7563.3 -7293.9 -7279.6 -7291.4 
-7323.5 -1149.6 -1089.5 -1115.5 -1406.2 -6819.8 -6697.1 -6705.8 -6851.4 
-7548.1 -7546.8 -7547.9 -7546.4 -7552.6 -7542 -7541.1 -7550 -7575.4 
-7568.9 -7568.5 -7574.2 -7607.2 -7620.4 -7621.2 -7612.2 -7547.5 -7553.5 
-7557.4 -7572.5 -7574.9 -7569.7 -7572.4 -7598.8 -7630.1 -7619 -7619 
-7621.4 -7494 -7462.8 -7457.2 -7456.9 -7300.8 -7556.1 -7441.9 -7300 
-7584.7 -7547.8 -7313.4 -7592 -7562.1 -7309.3 -7589.4 -7575.2 -7302.8 