# vtk DataFile Version 4.2
vtk output
ASCII
DATASET UNSTRUCTURED_GRID
POINTS 8741 float
-49.1846 -42.5132 29.0042 -49.1847 -30.5132 29.0077 -49.1849 30.4868 29.0256 
-49.185 42.4868 29.0292 -45.1855 46.4868 29.0922 -33.1869 46.4868 29.2779 
27.8058 46.4868 30.2215 39.8043 46.4868 30.4072 43.8039 42.4868 30.4679 
43.8039 30.4868 30.4643 43.8042 -30.5132 30.4464 43.8043 -42.5132 30.4429 
39.8047 -46.5132 30.3799 27.8062 -46.5132 30.1942 -45.1851 -46.5132 29.0649 
-33.1865 -46.5132 29.2506 27.9527 46.4896 20.7227 28.2776 46.4957 -0.27482 
40.2762 46.4957 -0.08918 39.9513 46.4896 20.9083 -33.04 46.4896 19.779 
-45.0385 46.4896 19.5933 -44.7136 46.4957 -1.40413 -32.7151 46.4957 -1.21849 
43.9508 42.4896 20.969 -49.038 42.4896 19.5303 44.2757 42.4957 -0.02847 
44.2758 30.4957 -0.032 43.9509 30.4896 20.9655 -49.038 30.4896 19.5268 
-48.7131 30.4957 -1.47071 -48.7132 42.4957 -1.46719 43.9512 -30.5104 20.9476 
-49.0377 -30.5104 19.5089 44.276 -30.5042 -0.0499 44.2761 -42.5042 -0.05342 
43.9512 -42.5104 20.9441 -49.0376 -42.5104 19.5054 -48.7128 -42.5042 -1.49214 
-48.7128 -30.5042 -1.48861 39.9517 -46.5104 20.881 -45.0381 -46.5104 19.5661 
40.2766 -46.5042 -0.11648 28.278 -46.5042 -0.30212 27.9531 -46.5104 20.6954 
-33.0395 -46.5104 19.7517 -32.7147 -46.5042 -1.24579 -44.7132 -46.5042 -1.43143 
-33.0396 -26.5104 19.7576 -29.0401 -30.5104 19.8183 -29.04 -42.5104 19.8148 
23.9536 -42.5104 20.6347 23.9536 -30.5104 20.6382 27.9531 -26.5104 20.7012 
39.9516 -26.5104 20.8869 39.9514 26.4896 20.9024 27.9528 26.4896 20.7168 
23.9533 30.4896 20.6561 23.9532 42.4896 20.6596 -29.0404 42.4896 19.8397 
-29.0404 30.4896 19.8362 -33.0399 26.4896 19.7731 -45.0384 26.4896 19.5875 
-45.0382 -26.5104 19.5719 53.909 30.5078 -40.8879 53.9089 46.5078 -40.8831 
44.9099 55.5078 -41.0197 28.9118 55.5078 -41.2673 28.9119 46.5078 -41.2699 
24.9124 42.5078 -41.333 24.9124 41.7078 -41.3332 -1.58445 41.7078 -41.7431 
-1.5844 31.3078 -41.7462 24.9124 31.3078 -41.3362 24.9124 30.5078 -41.3365 
28.912 26.5078 -41.2758 29.7119 26.5078 -41.2634 29.712 0.00778 -41.2712 
40.1107 0.00778 -41.1103 40.1106 26.5078 -41.1025 44.91 30.5078 -41.0271 
40.9105 26.5078 -41.0901 40.632 46.5025 -23.0864 28.6334 46.5025 -23.2721 
28.6334 55.5025 -23.2694 44.6315 55.5025 -23.0219 53.6304 46.5025 -22.8853 
53.6305 30.5025 -22.89 44.6315 42.5025 -23.0257 44.6316 30.5025 -23.0292 
28.2776 46.4957 -0.27482 24.2781 42.4957 -0.33787 24.2782 30.4957 -0.3414 
28.2777 26.4957 -0.28069 40.2763 26.4957 -0.09505 44.2758 30.4957 -0.032 
40.2762 46.4957 -0.08918 44.2757 42.4957 -0.02847 24.7268 31.3043 -29.3377 
24.7267 41.7043 -29.3346 -1.77004 31.3043 -29.7476 -1.77009 41.7043 -29.7446 
39.925 26.5042 -29.1039 29.5262 26.5042 -29.2648 39.9251 0.00425 -29.1117 
29.5264 0.00425 -29.2726 24.2781 42.4957 -0.33787 24.2782 30.4957 -0.3414 
28.2777 26.4957 -0.28069 40.2763 26.4957 -0.09505 -43.2794 26.5078 -42.3927 
-43.2793 0.00778 -42.4005 -32.8805 0.00778 -42.2396 -32.8806 26.5078 -42.2318 
-32.0807 26.5078 -42.2194 -28.0812 30.5078 -42.1564 -28.0812 31.3078 -42.1562 
-1.5844 31.3078 -41.7462 -1.58445 41.7078 -41.7431 -28.0813 41.7078 -42.1531 
-28.0813 42.5078 -42.1529 -32.0808 46.5078 -42.2136 -32.0809 55.5078 -42.2109 
-48.0789 55.5078 -42.4585 -57.0778 46.5078 -42.6003 -57.0778 30.5078 -42.605 
-48.0788 30.5078 -42.4658 -44.0793 26.5078 -42.4051 -57.3562 30.5025 -24.6072 
-57.3563 46.5025 -24.6025 -48.3574 55.5025 -24.4606 -32.3593 55.5025 -24.2131 
-32.3593 46.5025 -24.2157 -44.3578 46.5025 -24.4014 -48.3573 42.5025 -24.4644 
-48.3573 30.5025 -24.468 -32.7151 46.4957 -1.21849 -28.7155 42.4957 -1.15779 
-28.7155 30.4957 -1.16131 -32.715 26.4957 -1.22436 -44.7136 26.4957 -1.41 
-48.7131 30.4957 -1.47071 -44.7136 46.4957 -1.40413 -48.7132 42.4957 -1.46719 
-28.2669 31.3043 -30.1576 -28.2669 41.7043 -30.1545 -1.77009 41.7043 -29.7446 
-1.77004 31.3043 -29.7476 -43.465 26.5042 -30.3941 -33.0663 26.5042 -30.2333 
-33.0662 0.00425 -30.241 -43.4649 0.00425 -30.4019 -28.7155 42.4957 -1.15779 
-28.7155 30.4957 -1.16131 -32.715 26.4957 -1.22436 -44.7136 26.4957 -1.41 
40.1109 -26.4922 -41.1181 40.1107 0.00778 -41.1103 29.712 0.00778 -41.2712 
29.7121 -26.4922 -41.2789 28.9122 -26.4922 -41.2913 24.9127 -30.4922 -41.3544 
24.9127 -31.2922 -41.3546 -1.58412 -31.2922 -41.7646 -1.58407 -41.6922 -41.7676 
24.9128 -41.6922 -41.3577 24.9128 -42.4922 -41.3579 28.9123 -46.4922 -41.2972 
28.9123 -55.4922 -41.2998 44.9104 -55.4922 -41.0523 53.9093 -46.4922 -40.9104 
53.9092 -30.4922 -40.9058 44.9103 -30.4922 -41.045 40.9108 -26.4922 -41.1057 
53.6308 -30.4975 -22.9079 53.6308 -46.4975 -22.9126 44.632 -55.4975 -23.0545 
28.6339 -55.4975 -23.302 28.6338 -46.4975 -23.2994 40.6324 -46.4975 -23.1137 
44.6319 -42.4975 -23.0507 44.6319 -30.4975 -23.0471 28.278 -46.5042 -0.30212 
24.2785 -42.5042 -0.36282 24.2784 -30.5042 -0.3593 28.2779 -26.5042 -0.29625 
40.2765 -26.5042 -0.11061 44.276 -30.5042 -0.0499 40.2766 -46.5042 -0.11648 
44.2761 -42.5042 -0.05342 24.7271 -31.2957 -29.3561 24.7271 -41.6957 -29.3591 
-1.76971 -41.6957 -29.7691 -1.76976 -31.2957 -29.766 39.9252 -26.4957 -29.1195 
29.5265 -26.4957 -29.2804 29.5264 0.00425 -29.2726 39.9251 0.00425 -29.1117 
24.2785 -42.5042 -0.36282 24.2784 -30.5042 -0.3593 28.2779 -26.5042 -0.29625 
40.2765 -26.5042 -0.11061 -44.7133 -26.5042 -1.42556 -32.7148 -26.5042 -1.23992 
-28.7152 -30.5042 -1.17921 -28.7152 -42.5042 -1.18274 -32.0805 -26.4922 -42.235 
-44.079 -26.4922 -42.4206 -43.2791 -26.4922 -42.4083 -43.4648 -26.4957 -30.4097 
-33.066 -26.4957 -30.2488 -32.8804 -26.4922 -42.2474 -28.0809 -42.4922 -42.1778 
-28.0809 -30.4922 -42.1743 -28.0809 -31.2922 -42.1745 -28.2666 -31.2957 -30.176 
-28.2665 -41.6957 -30.179 -28.0809 -41.6922 -42.1776 -48.357 -42.4975 -24.4894 
-48.357 -30.4975 -24.4858 -44.3574 -46.4975 -24.4287 -32.3588 -46.4975 -24.243 
-43.4649 0.00425 -30.4019 -33.0662 0.00425 -30.241 -32.8805 0.00778 -42.2396 
-43.2793 0.00778 -42.4005 -1.76976 -31.2957 -29.766 -1.76971 -41.6957 -29.7691 
-1.58412 -31.2922 -41.7646 -1.58407 -41.6922 -41.7676 -32.3588 -55.4975 -24.2457 
-48.3569 -55.4975 -24.4932 -57.3559 -46.4975 -24.6298 -57.3559 -30.4975 -24.6251 
-57.0775 -30.4922 -42.6229 -48.0785 -30.4922 -42.4837 -57.0774 -46.4922 -42.6276 
-32.0804 -46.4922 -42.2409 -32.0803 -55.4922 -42.2435 -48.0784 -55.4922 -42.491 
-46.7156 -46.2087 29.0413 -48.0132 -45.3416 29.0215 -48.8801 -44.0439 29.0085 
-49.1846 -39.5132 29.0051 -49.1846 -36.5132 29.006 -49.1847 -33.5132 29.0068 
-49.1847 -27.4632 29.0086 -49.1847 -24.4132 29.0095 -49.1847 -21.3632 29.0104 
-49.1847 -18.3132 29.0113 -49.1847 -15.2632 29.0122 -49.1847 -12.2132 29.0131 
-49.1848 -9.16321 29.014 -49.1848 -6.11321 29.0149 -49.1848 -3.06321 29.0158 
-49.1848 -0.01321 29.0167 -49.1848 3.03679 29.0176 -49.1848 6.08678 29.0185 
-49.1848 9.13678 29.0194 -49.1848 12.1868 29.0203 -49.1849 15.2368 29.0212 
-49.1849 18.2868 29.0221 -49.1849 21.3368 29.0229 -49.1849 24.3868 29.0238 
-49.1849 27.4368 29.0247 -49.185 33.4868 29.0265 -49.185 36.4868 29.0274 
-49.185 39.4868 29.0283 -48.8806 44.0175 29.0343 -48.0136 45.3152 29.0481 
-46.716 46.1823 29.0685 -42.1858 46.4868 29.1386 -39.1862 46.4868 29.185 
-36.1866 46.4868 29.2314 -30.1373 46.4868 29.325 -27.0877 46.4868 29.3722 
-24.038 46.4868 29.4194 -20.9884 46.4868 29.4666 -17.9387 46.4868 29.5138 
-14.8891 46.4868 29.561 -11.8395 46.4868 29.6081 -8.78985 46.4868 29.6553 
-5.74021 46.4868 29.7025 -2.69058 46.4868 29.7497 0.35906 46.4868 29.7969 
3.40869 46.4868 29.8441 6.45832 46.4868 29.8912 9.50796 46.4868 29.9384 
12.5576 46.4868 29.9856 15.6072 46.4868 30.0328 18.6569 46.4868 30.08 
21.7065 46.4868 30.1272 24.7561 46.4868 30.1743 30.8054 46.4868 30.2679 
33.805 46.4868 30.3144 36.8047 46.4868 30.3608 41.3349 46.1823 30.4308 
42.6324 45.3152 30.4506 43.4994 44.0175 30.4636 43.8039 39.4868 30.467 
43.8039 36.4868 30.4661 43.8039 33.4868 30.4652 43.8039 27.4368 30.4635 
43.804 24.3868 30.4626 43.804 21.3368 30.4617 43.804 18.2868 30.4608 
43.804 15.2368 30.4599 43.804 12.1868 30.459 43.804 9.13678 30.4581 
43.804 6.08678 30.4572 43.8041 3.03679 30.4563 43.8041 -0.01321 30.4554 
43.8041 -3.06321 30.4545 43.8041 -6.11321 30.4536 43.8041 -9.16321 30.4527 
43.8041 -12.2132 30.4518 43.8041 -15.2632 30.4509 43.8041 -18.3132 30.45 
43.8042 -21.3632 30.4491 43.8042 -24.4132 30.4482 43.8042 -27.4632 30.4473 
43.8042 -33.5132 30.4456 43.8042 -36.5132 30.4447 43.8042 -39.5132 30.4438 
43.4998 -44.0439 30.4378 42.6328 -45.3416 30.424 41.3353 -46.2087 30.4036 
36.8051 -46.5132 30.3335 33.8055 -46.5132 30.2871 30.8058 -46.5132 30.2406 
24.7565 -46.5132 30.1471 21.7069 -46.5132 30.0999 18.6573 -46.5132 30.0527 
15.6076 -46.5132 30.0055 12.558 -46.5132 29.9583 9.50838 -46.5132 29.9111 
6.45875 -46.5132 29.864 3.40911 -46.5132 29.8168 0.35948 -46.5132 29.7696 
-2.69016 -46.5132 29.7224 -5.73979 -46.5132 29.6752 -8.78943 -46.5132 29.628 
-11.8391 -46.5132 29.5808 -14.8887 -46.5132 29.5337 -17.9383 -46.5132 29.4865 
-20.988 -46.5132 29.4393 -24.0376 -46.5132 29.3921 -27.0872 -46.5132 29.3449 
-30.1369 -46.5132 29.2977 -36.1861 -46.5132 29.2041 -39.1858 -46.5132 29.1577 
-42.1854 -46.5132 29.1113 27.9037 46.4886 23.889 27.8548 46.4877 27.0552 
28.2312 46.4949 2.72482 28.1848 46.494 5.72446 28.1384 46.4931 8.7241 
28.092 46.4922 11.7237 28.0455 46.4913 14.7234 27.9991 46.4905 17.723 
31.2772 46.4957 -0.22841 34.2769 46.4957 -0.182 37.2765 46.4957 -0.13559 
40.2298 46.4949 2.91046 40.1833 46.494 5.9101 40.1369 46.4931 8.90974 
40.0905 46.4922 11.9094 40.0441 46.4913 14.909 39.9977 46.4905 17.9087 
39.9023 46.4886 24.0746 39.8533 46.4877 27.2409 -33.089 46.4886 22.9453 
-33.1379 46.4877 26.1116 24.9031 46.4896 20.6755 21.8535 46.4896 20.6283 
18.8038 46.4896 20.5811 15.7542 46.4896 20.5339 12.7046 46.4896 20.4867 
9.65492 46.4896 20.4396 6.60529 46.4896 20.3924 3.55566 46.4896 20.3452 
0.50602 46.4896 20.298 -2.54361 46.4896 20.2508 -5.59325 46.4896 20.2036 
-8.64288 46.4896 20.1565 -11.6925 46.4896 20.1093 -14.7422 46.4896 20.0621 
[...]
CELL_DATA 12638
SCALARS cell_scalars float
LOOKUP_TABLE default
-10350 -9991.3 -10311 -10308 -9921.7 -10256 -10164 -9856.7 -10072 
-9659.6 -9968.5 -9474.8 -9712.5 -9258.8 -9692.7 -9120.2 -9400.2 -8846.5 
-9233.9 -8671.2 -8986.9 -8452.1 -9142.4 -8601.1 -9388.4 -8791.1 -9515.4 
-8821.4 -9486.8 -8943.9 -9483.9 -9115.5 -9633.7 -9292 -9836 -9482.2 
-10017 -9667.7 -10188 -9823.8 -10346 -9985 -10444 -10142 -10554 
-10306 -10694 -10457 -10753 -10414 -10694 -10335 -10691 -10316 
-10652 -10207 -10561 -10118 -10489 -10040 -10380 -9957.4 -10314 
-9987.2 -10408 -10355 -9918.9 -10317 -10464 -9918.9 -10443 -9801.7 
-10358 -9889.9 -10389 -9823.1 -10328 -9814.1 -10324 -9771.8 -10264 
-9833.5 -10312 -9826.7 -10308 -9737.8 -10320 -9737.8 -10339 -9728.5 
-10302 -9769.1 -10326 -9800 -10358 -9743.2 -10414 -9792.3 -10439 
-9725.2 -10327 -9767.2 -10335 -9781.4 -10287 -9777.8 -10286 -9719 
-10277 -9768.3 -10254 -9792.6 -10225 -9728.4 -10235 -9705.9 -10327 
-9760.8 -10297 -9759 -10296 -9740.8 -10271 -9818.2 -10320 -9900.4 
-10369 -10160 -9820.4 -10261 -10321 -9893.1 -10301 -9889.2 -10372 
-9979.9 -10402 -10044 -10508 -10171 -10608 -10266 -10711 -10341 
-10685 -10389 -10747 -10457 -10765 -10392 -10634 -10224 -10508 
-10058 -10424 -9924.3 -10279 -9762.9 -10112 -9568.5 -9953.5 -9392.6 
-9797.2 -9222.8 -9641.6 -9136 -9616.2 -8935.4 -9506.1 -8882.7 -9466 
-8650.7 -9209.6 -8433.7 -8975.9 -8603.8 -9127.1 -8772.6 -9337.5 -9058.4 
-9515.6 -9172.7 -9648.3 -9426.9 -9816.1 -9516.5 -9971.3 -9705.3 -10226 
-10245 -9871.2 -10245 -10137 -9794.6 -10030 -9633.2 -10002 -9737 
-9991.8 -9599.7 -9969.8 -9635.8 -9994.7 -9651.2 -9995.3 -9717.5 -10006 
-9719.6 -9984.2 -9687.8 -10031 -9710.3 -9987.1 -9706.5 -10006 -9744.4 
-10017 -9722 -10010 -9712.3 -10038 -9723.8 -10021 -9734.5 -10037 
-9754.5 -10043 -9750.3 -10040 -9741.3 -10025 -9712.6 -10066 -9739.3 
-10059 -9744.5 -10064 -9725.2 -10071 -9746.5 -10037 -9729.9 -10018 
-9680.1 -10005 -9720.2 -10008 -9800.2 -9727.2 -9517.5 -9562.4 -9450.1 
-9462.8 -9433.5 -9644.2 -9601.4 -9656.8 -9627.5 -9575.9 -9454.7 -9491.4 
-9483.2 -9606.6 -9559.2 -9342.9 -9305.8 -9150 -9130.5 -8959.9 -8970.2 
-8741.1 -8873.3 -8601.2 -8678.2 -8344.3 -8486.5 -8415.2 -8372 -8459.4 
-8469.2 -8570.7 -8423.8 -8664.5 -8593.9 -8786.9 -8734.6 -8957.4 -8883.5 
-9134.7 -9019.2 -9288.1 -9177.4 -9496.3 -9368.6 -9661.3 -9541 -9828.2 
-9719 -9999.8 -9887.6 -10139 -10061 -10179 -10118 -10083 -10092 
-10046 -10038 -9947.2 -9982 -9854.1 -9885.6 -9735.2 -9796.8 -9750.2 
-9702.7 -9628.8 -9519.4 -9573.9 -9465.8 -9394.9 -9435.5 -9393.4 -9480.8 
-9432.5 -9355.7 -9408.6 -9420.4 -9325.7 -9403.3 -9392.2 -9437.5 -9366.2 
-9433.7 -9441.4 -9438.5 -9429.8 -9431.9 -9411.9 -9470.8 -9381.2 -9468.3 
-9389.2 -9480.1 -9390.3 -9477.1 -9393 -9457.1 -9398.4 -9471.1 -9386.9 
-9454.1 -9392.9 -9461.7 -9405.5 -9462.3 -9402 -9435.8 -9394.4 -9410.8 
-9372.4 -9405.9 -9365.3 -9429.1 -9371.2 -9538.3 -9442.6 -9505 -9464.3 
-9546.5 -9555.6 -9614.9 -9567.6 -9596.2 -9553.2 -9601.4 -9657.9 -9572.6 
-9591.4 -9549.5 -9625.4 -9485.6 -9526.6 -9498.5 -9626.9 -9529.8 -9590.1 
-9487.8 -9633.7 -9507.4 -9578.9 -9472.3 -9497.6 -9461.6 -9494.7 -9454.6 
-9477.3 -9436.2 -9501.1 -9436.8 -9424.9 -9467.9 -9423.7 -9460 -9405.7 
-9424.3 -9410.6 -9494.1 -9514.7 -9586.2 -9602.3 -9555.9 -9603.1 -9566.4 
-9536.6 -9533.4 -9466.3 -9620.2 -9612.1 -9555.1 -9521.6 -9676.9 -9574 
-9726.7 -9584.4 -9797.1 -9741.3 -9878.4 -9825.6 -9981.1 -9912.3 -10055 
-10004 -10147 -10067 -10172 -10135 -10073 -10112 -9928.9 -9975.4 
-9743.7 -9795.5 -9576.8 -9644.3 -9387 -9463.1 -9219.2 -9297.2 -9054.9 
-9120.3 -8884.5 -8970.1 -8745.2 -8838.3 -8581.8 -8692.6 -8520 -8598.4 
-8433.6 -8427.2 -8413.2 -8439.3 -8488.4 -8464.7 -8735.9 -8616.4 -9006.5 
-8901 -9121.5 -9066.8 -9249 -9142.8 -9338.5 -9288.9 -9599.5 -9327.2 
-9470.3 -9468.6 -9333 -9602.2 -9473.3 -9297.5 -9274.1 -9182.1 -9249.6 
-9580.4 -9577.4 -9675.5 -9576.9 -9085.5 -9127.7 -9753.2 -9681.6 -9452.4 
-9475.1 -8988.6 -8967.5 -9863.9 -9788.9 -8883.6 -8840.5 -8614.6 -8668.5 
-8299.5 -8453.7 -8378.5 -8354.2 -8477.5 -8432 -8619.5 -8565.7 -8704.3 
-8661.2 -8866.7 -8805.1 -8989.4 -8900.6 -9146.7 -9068.5 -9311.1 -9230.2 
-9517 -9403.4 -9684.4 -9563.6 -9854.2 -9739.9 -10020 -9917.6 -10126 
-10081 -10093 -10139 -10067 -10085 -9996 -9993.8 -9881.4 -9956.9 
-9745.9 -9796.1 -9938.3 -9881.7 -10018 -9953.3 -10087 -10035 -10132 
-10117 -10101 -10136 -9931.5 -10004 -9752.5 -9822 -9582.8 -9649.3 
-9415.5 -9480.7 -9242.9 -9292.8 -9079.6 -9118.4 -8912.4 -8968.9 -8759.8 
-8821.9 -8639.2 -8684.4 -8550.8 -8577.9 -8416.7 -8418.1 -8256.3 -8318.8 
-8611.8 -8298.9 -8608.9 -8609.8 -8788 -8661.4 -8930.4 -8852.1 -9219.3 
-9133.5 -9745.7 -9707.6 -9257.1 -9080.2 -9324 -9255.8 -9239.2 -9307.3 
-9321.8 -9277 -9324.2 -9222.2 -9372.1 -9350.8 -9327.7 -9252.5 -9255.3 
-9247.7 -9356.9 -9238.7 -9314.5 -9239.9 -9333.5 -9240 -9293.9 -9238.8 
-9299.3 -9266.2 -9287.8 -9277.8 -9285.1 -9325.4 -9300.1 -9295.7 -9321.1 
-9254.2 -9358.6 -9307.1 -9390.1 -9318 -9419.4 -9348.3 -9399 -9354.2 
-9422.5 -9352.8 -9291.2 -9379.6 -9291.2 -9323 -9292 -9297.7 -9551.8 
-9591.2 -9557 -9575.9 -9573.3 -9563.5 -9592 -9576.2 -9667 -9642 
-9590.3 -9677.3 -9538.5 -9656 -9549.5 -9527.3 -9470.1 -9522.2 -9551.9 
-9566.9 -9569 -9581.8 -9603.7 -9626.6 -9600 -9594.4 -9577.6 -9660.2 
-9592.8 -9630.7 -9578.1 -9626.5 -9621.8 -9663.7 -9617.1 -9648.5 -9630.4 
-9661.9 -9656.2 -9642.3 -9605.8 -9623.8 -9514.8 -9507 -9474 -9448.5 
-9415.8 -9471.2 -9426.5 -9533.4 -9578.3 -9220.4 -9396.9 -9457.6 -9412.8 
-9310.8 -9373.4 -9453.7 -9579.2 -9554 -9646.8 -9577 -9655.3 -9629.9 
-9598.4 -9635.9 -9716.9 -9758.4 -9080.9 -9183.6 -9178.9 -9176.4 -8878.7 
-9109.3 -8728.6 -9003.5 -9893.1 -9823.4 -9177.1 -9117.9 -9560.5 -9644.1 
-8547.3 -8556.7 -9958.1 -9930.2 -9369.1 -9439.2 -8480.3 -8547.3 -8314.6 
-8358.6 -8401 -8430.4 -8523.9 -8410.5 -8616.2 -8535 -8719.1 -8604.1 
-8869.7 -8771.4 -9007.1 -8940.7 -9172.4 -9080 -9340.6 -9243.9 -9504.3 
-9431.3 -9710.6 -9614.1 -9879.9 -9783.9 -10057 -9979.5 -10159 -10125 
-10098 -10118 -9944.9 -10009 -9944.3 -9903.1 -9839.8 -9897.7 -9687.9 
-9768.2 -10026 -9998.7 -10132 -10077 -10146 -10141 -9969.9 -10059 
-9780.5 -9888.8 -9604 -9706.6 -9438.6 -9531.5 -9263.1 -9361.4 -9080.8 
-9184.1 -8934.3 -9010.4 -8767 -8865.9 -8637.5 -8708.7 -8487.4 -8592.4 
-8333.2 -8464.4 -8383.7 -8380 -8252.9 -8362.2 -8460.7 -8369.2 -8701 
-8745.4 -8811.4 -8860.6 -9014.2 -8996.3 -9238.1 -9114 -9176.4 -9179 
-9199.2 -9168.5 -9262.7 -9199.7 -9265.6 -9235.7 -9213.1 -9183.5 -9204.9 
-9254.9 -9241.9 -9206.8 -9286.6 -9230.6 -9281.3 -9248.3 -9301.9 -9233 
-9289.6 -9235.7 -9300.8 -9272.6 -9300.2 -9267.4 -9331.7 -9289 -9270.6 
-9329.1 -9258.8 -9210.5 -9233.9 -9170 -9262.5 -9227.8 -9274.8 -9261.6 
-9361.4 -9177.3 -9248.5 -9185 -9712.5 -9646.3 -9570 -9684.9 -9706.7 
-9699.7 -9754.6 -9741.8 -9765.9 -9731.3 -9731.3 -9783.7 -9707.4 -9808.3 
-9741.9 -9802 -9731.8 -9769 -9727 -9805.4 -9714 -9763.9 -9729.2 
-9752.2 -9768.8 -9757.1 -9735.8 -9735.6 -9720.5 -9738.7 -9657.5 -9721.9 
-9583.1 -9628.3 -9565.8 -9565.8 -9708 -9669.5 -9583.4 -9643.9 -9571 
-9576.5 -9567.7 -9617.3 -9407.1 -9328.1 -9271.1 -9653.8 -9560.3 -9255.5 
-9236.8 -9238.3 -9605.8 -9672.1 -9067 -9092.1 -9637.1 -9684 -9746.6 
-9700.9 -9692.3 -9082.2 -9073.9 -9126.8 -8872.6 -8959.6 -8764.4 -8901.1 
-8629.8 -8659.3 -9763.9 -9747.4 -9857.4 -9853.6 -9943.1 -9941.9 -8901.5 
-9019.8 -9698.4 -9704.4 -9777.4 -9729.5 -9010.5 -9110.6 -9680.8 -9713.9 
-8927 -8864.5 -9835.4 -9810.8 -9107.5 -9145.8 -8292.9 -8456.5 -10019 
-10029 -9739.8 -9689.7 -9766.6 -9802.8 -9812 -9846.5 -9671.6 -9790.9 
-9695.4 -9775.8 -9701 -9730.6 -9752.3 -9724.2 -9767.8 -9758.4 -9741.5 
-9769.8 -9754.6 -9801.6 -9760.3 -9746.6 -9766.8 -9805.9 -9785.8 -9806.8 
-9812.1 -9778.7 -9757.1 -9826.3 -9043.8 -9153.6 -9127.2 -9078.1 -9190.2 
-9111 -9095.9 -9139 -9068.4 -9112.2 -9062.8 -9029.2 -9069.2 -9048.6 
-9146.7 -9061.3 -9149.3 -9211.1 -9160.8 -9205.8 -9169.7 -9164.2 -9201.7 
-9188.9 -9192.7 -9170.8 -9229.6 -9088.4 -9178.1 -9085.5 -9953.2 -9922.5 
-10010 -9998.8 -10045 -10015 -10079 -10065 -10035 -10096 -9828.6 
-9944.5 -9629.5 -9746.8 -9437.6 -9547.2 -9259.3 -9358 -9105.6 -9218.1 
-8938.5 -9044.6 -8807.6 -8879.3 -8609.8 -8748.8 -8570.7 -8623.4 -8385.4 
-8498.4 -8320.8 -8318.2 -8678.8 -8797.4 -8512.3 -8684.5 -8274 -8315.8 
-8499.8 -8347 -8597.9 -8556.8 -8683.6 -8617.8 -8806.2 -8773.5 -8933.1 
-8863.1 -9063.4 -8983.6 -9209.6 -9142.8 -9385.9 -9314.3 -9592.1 -9508.9 
-9769.7 -9678.7 -9941.6 -9866.1 -10071 -10013 -10062 -10066 -9743.2 
-9757.7 -9157.8 -9179.4 -9806.3 -9715.1 -9115.6 -8996.2 -9671.2 -9792.5 
-9081.2 -9101.6 -9731 -9749.1 -9125.4 -9118.4 -8318.3 -10039 -9044.1 
-9723.5 -9788.7 -9697.8 -8935.7 -8968 -9050.1 -9082.9 -8976.3 -9103.1 
-9737.8 -9719 -9817.8 -9746.4 -8882.7 -8885.8 -8638.7 -8773.3 -8574.4 
-9881.4 -9837.7 -9911.1 -9902 -9992.2 -9993.8 -9046.2 -9089.5 -9780.9 
-9801.9 -9070.1 -8946.9 -9032.1 -9056.2 -8972.1 -8908.7 -8918.2 -8857.5 
-8963.6 -8906.2 -8937.5 -8893.9 -8900.5 -8969.7 -8978.8 -8889.8 -8955 
-8904.4 -8961.3 -8889.4 -9021.1 -8961.5 -9107 -9028.5 -9153.9 -9071.9 
-9076.5 -9148.2 -9052.6 -9039.4 -9020.4 -8946.7 -9184.1 -9129.4 -9109.6 
-9048.6 -9823.7 -9846.3 -9846.7 -9898.5 -9803.2 -9860.8 -9812.4 -9834.7 
-9824.8 -9868.7 -9818.7 -9829.9 -9793.7 -9886.5 -9790.2 -9825.2 -9800.7 
-9849.5 -9821.6 -9836.7 -9840.1 -9835.9 -9910.7 -9874.9 -9880.3 -9914.7 
-9846.9 -9882.4 -9844 -9882 -9843.7 -9847.7 -9758.6 -9836.7 -9785 
-9765.1 -9877.8 -9856.8 -9977.6 -9886.4 -10077 -10033 -10122 -10119 
-10063 -10145 -9866.8 -9939.4 -9717.5 -9784.6 -9574.1 -9640 -9407.6 
-9469.6 -9253.5 -9306.9 -9105.3 -9149.1 -8913.7 -8997.5 -8821.3 -8857 
-8697.7 -8743.3 -8569.5 -8616 -8381.3 -8471.7 -8845.7 -8872.2 -8505.1 
-8598.8 -8408.3 -8417.5 -8331.4 -8472.5 -8417.8 -8363.3 -8543.4 -8440.5 
-8625.7 -8572.3 -8766.3 -8715.1 -8985.6 -8892.7 -9137.1 -9038.2 -9303.5 
-9220.4 -9442.9 -9370 -9602.2 -9514.2 -9792.4 -9685.8 -9967.5 -9861.4 
-10130 -10066 -9827 -8872 -9805.3 -9860.5 -9827.3 -9007.6 -8989.3 
-8899.9 -10104 -10045 -10143 -8330.9 -8371.6 -8496.9 -8389.1 -8949.3 
-8894.6 -8755.4 -9883.5 -9840.9 -9897 -9981.8 -9967.5 -8936.1 -8882.9 
-9010.8 -8873.9 -8989.8 -8808.4 -8988.5 -8842.5 -9014.1 -8967.1 -9072.5 
-8976.7 -9032.6 -8982.4 -9063.7 -8981.3 -9035.6 -8996.3 -9061.1 -8964.9 
-9025.6 -8988.9 -8934.2 -8916.4 -8905.9 -8824.5 -9133 -8993.4 -9022.6 
-8967.1 -9018.1 -9020.2 -8999.1 -8911.7 -9876.5 -9905.2 -9958.8 -9938.6 
-9919.6 -9951 -9958.5 -9971.6 -9944.9 -9969.8 -10004 -9978.6 -9967.4 
-9964 -9989.3 -9961.7 -9948.1 -9974.8 -9940.5 -9971.8 -9912.8 -9929.8 
-9894.3 -9904.2 -9865.3 -9898.5 -9883.3 -9902.4 -9883.2 -9947.7 -9875 
-9904.4 -9914.5 -9907.9 -9960.5 -9908.9 -9983.7 -9975.2 -10073 -10046 
-10114 -10103 -9980.9 -10067 -9797.5 -9903.5 -9627.7 -9719.7 -9431.1 
-9535.8 -9242.1 -9314.4 -9098.3 -9185.2 -8919.7 -8986.8 -8793.9 -8828 
-8646.2 -8709.8 -8525.6 -8565 -8480.4 -8437.7 -8805.3 -8830.1 -8925.5 
-8559.8 -8637.8 -8274.5 -8412.2 -8488 -8326.1 -8606.6 -8529 -8593.2 
-8594.2 -8740.6 -8696.5 -8857.1 -8829.1 -9035.3 -8918.1 -9179 -9107.9 
-9350.2 -9267.3 -9529 -9452.1 -9710.7 -9641.2 -9879.1 -9797.8 -10105 
-9998.6 -8986.5 -8938.5 -9883.1 -9902.3 -8592.2 -8618.1 -8705.1 -8764.5 
-8671.8 -8838.5 -8606.1 -8840.8 -8788.9 -9948.5 -9942.5 -8898.3 -8789.1 
-10070 -10014 -10127 -10093 -10142 -8833.5 -8814.9 -8783.5 -8684.2 
-8861.2 -8804.1 -8925.4 -8875 -8699.5 -8780.1 -8709.3 -8679.7 -8736.1 
-8593.1 -8738 -8731.8 -8772.8 -8633 -8740.6 -8765.2 -8839.7 -8719.2 
-8429.5 -8371.4 -8427 -8334.2 -8780.6 -8723.5 -8811.1 -8840.8 -8885.7 
-8697 -10009 -9967.1 -9904.9 -9938.3 -9931.3 -9967 -9922.7 -9941.2 
-9953.5 -9913.5 -9997.7 -10027 -9944 -9997.6 -9932.7 -9977.5 -9931.8 
-9955.5 -9912.4 -9935 -9939.1 -9955 -9936.9 -9933.8 -9945 -9955.2 
-9991.3 -9943.8 -10008 -10017 -10023 -9997.9 -9958.9 -9993.8 -10033 
-10020 -10086 -10079 -10088 -10115 -9909.8 -9971.7 -9744.5 -9822.7 
-9574.2 -9653 -9393.8 -9490.7 -9235.6 -9330.5 -9031.7 -9156 -8926.9 
-9017.2 -8762.6 -8894.2 -8670.2 -8724.6 -8528 -8603.2 -8490.6 -8439.4 
-8346.2 -8478 -8407.2 -8396.2 -8531.5 -8461.2 -8752 -8613.2 -8864.5 
-8789.5 -8977.7 -8885.1 -9138.6 -9071.7 -9303 -9195 -9476.9 -9396.9 
-9654.1 -9551.9 -9824.7 -9721.8 -9995.2 -9907.5 -8692.6 -8495.3 -9981.7 
-8721.4 -8521 -8695 -8652.8 -8682.2 -8528 -8446.6 -8605.9 -10014 
-10000 -10006 -10057 -9992.4 -8426.9 -8368.3 -8347.6 -8426.6 -8441.9 
-10093 -10050 -10107 -10079 -10115 -10111 -10077 -8302.8 -8352.8 
-9982.2 -10012 -10001 -10016 -10052 -10019 -9966.5 -10030 -10050 
-10031 -10041 -10082 -10049 -10047 -10039 -10062 -10045 -10068 
-10019 -10077 -10030 -10054 -9990.7 -10051 -9981.7 -10005 -10027 
-10048 -10113 -10110 -9998.9 -10053 -9845.1 -9913.6 -9616.2 -9731.8 
-9443.5 -9499 -9304.5 -9370.7 -9128 -9204 -9010.6 -9046.6 -8858.9 
-8908.7 -8710.4 -8732.9 -8581.1 -8606.1 -8355.2 -8359 -8518.3 -8501.7 
-8646.3 -8582.2 -8704.2 -8651 -8842.6 -8777.2 -8990.6 -8943.1 -9178.9 
-9093.5 -9341.3 -9274 -9490.5 -9411.6 -9669.9 -9586.1 -9879.2 -9771.1 
-8688.8 -8593.3 -8549 -8538.3 -8682.3 -8596.7 -8688.8 -8645.9 -8742.7 
-8587.6 -8590.6 -8598.8 -8631.5 -8521.7 -8557.8 -8487.6 -8457.6 -8504.7 
-8433.3 -8523.3 -8550.2 -8432.9 -8485.6 -8396.1 -10030 -8447.7 -8476 
-8421.4 -8423.1 -10069 -10066 -10109 -10106 -10058 -10070 -10062 
-8381.3 -8403.1 -10035 -10098 -10084 -10082 -8470.5 -8442.6 -10005 
-10075 -9914.7 -9986.8 -8554.6 -8538.9 -10074 -10064 -8464.4 -8434.2 
-10040 -10091 -10006 -10033 -10049 -10037 -10019 -10020 -10066 
-10036 -10096 -10101 -10100 -10069 -10100 -10117 -10090 -10116 
-10071 -10114 -8556.3 -8522.3 -8368.8 -8451 -8346.2 -8253.6 -8406.4 
-8547.9 -8387.8 -8506.8 -9757 -9814.3 -9554.1 -9673.7 -9372.3 -9463.7 
-9169.7 -9286.7 -9024.2 -9078.3 -8836.2 -8962.6 -8680.6 -8782.7 -8570.3 
-8682.2 -8682 -8620.6 -8793.9 -8741.7 -8978.9 -8916.1 -9148.3 -9043.9 
-9292.5 -9225.7 -9452.7 -9388.9 -9645 -9565.3 -9821.2 -9753 -9941.2 
-10050 -10110 -10094 -8409.8 -8382.1 -8452.6 -8442 -8448.6 -8413.2 
-8475.3 -8463.8 -8485.5 -8339.8 -8433.5 -8463.7 -8419.9 -8299.9 -8308.5 
-8241.7 -8314.7 -8394.5 -8260.3 -8324.9 -10093 -8405.4 -10102 -10116 
-10083 -10114 -10149 -10010 -10074 -10112 -10087 -10068 -10124 
-9945 -10010 -9895.5 -8442.2 -8357.6 -8482.5 -8337.7 -8499.5 -8529.9 
-8479.1 -8333.5 -8394.7 -8397.6 -8325.1 -8344 -8387.7 -8305.1 -8433.3 
-8364.8 -8365.9 -8374.8 -8453.7 -8418.3 -8377.6 -8471.8 -8377.9 -8431.7 
-8347.4 -8359.8 -8400.4 -8385.6 -8398.8 -8439 -8440.3 -8385.6 -8368.6 
-8443.2 -8346.2 -9828.5 -9930.4 -9647.5 -9719.4 -9478.1 -9537.8 -9366.7 
-9430.5 -9193.1 -9242.3 -9034.2 -9134.9 -8867.1 -8940.5 -8729 -8792.5 
-8612.4 -8555.7 -8766.4 -8644.5 -8827.7 -8783.6 -9024.8 -8937.4 -9135.4 
-9076.6 -9325.7 -9247.9 -9523.5 -9404.1 -9701.3 -9599 -10102 -10107 
-10120 -10100 -10120 -10132 -10142 -10146 -10127 -10171 -10123 
-10152 -10090 -10125 -10054 -10090 -10098 -10081 -10116 -10124 
-10112 -10100 -10102 -10110 -9957.8 -10015 -10098 -10096 -10107 
-10030 -10058 -8432.9 -8338.6 -8374.1 -8387 -8412.1 -8536.4 -8476.3 
-9875.9 -9992.8 -9781.1 -8471 -8502.2 -8480.5 -8620.9 -8612.7 -8635.8 
-8446 -8473.1 -8382 -8391.2 -8297.3 -8371.9 -8307.6 -8430.2 -8415.9 
-8418.5 -8455.2 -8473.6 -8475.1 -8480.6 -8325.3 -8454.9 -8460.8 -8457.7 
-9783.8 -9845.4 -10114 -10097 -10083 -10065 -10122 -10105 -10139 
-10110 -10143 -10080 -10116 -10097 -10101 -10067 -10088 -10052 
-10092 -10066 -10048 -10044 -9530.8 -9665.7 -9384.8 -9475.9 -9175.5 
-9271.3 -9046.1 -9119.3 -8852.2 -8956.2 -8779.3 -8828.7 -8646 -8629.9 
-8529.1 -8798.6 -8770 -8942.1 -8894.3 -9094.8 -9014.1 -9320.6 -9200.3 
-9461.8 -9369.2 -9604 -9552.3 -8476.9 -8486.4 -10034 -10066 -10049 
-9978.3 -8439.3 -8463 -8484.2 -8580.2 -8647 -8553.8 -8765.6 -8705 
-8884.5 -8852.4 -9842.2 -9955.4 -10007 -9914.1 -9984.8 -9967.5 -9031.2 
-8919.1 -9995.5 -9947.3 -8492.8 -8466.4 -8668.1 -8562.7 -8739.7 -8455.9 
-8496.7 -9770.8 -9883.5 -9686.2 -9948.9 -9853.3 -9965.6 -9917 -9992.7 
-9926 -10007 -9935.7 -10021 -9960.5 -10008 -9959.8 -9177.9 -9103.7 
-9297.9 -9259 -9484 -9393.4 -8628.4 -8581.1 -8548.8 -8593.7 -8417 
-8502.6 -8413.5 -8427.9 -8478.6 -8473 -8529.6 -8514.7 -9688.9 -9751.2 
-9527.2 -9607.6 -9320.2 -9424.3 -9121.2 -9235.1 -8993.4 -9040.7 -8829.9 
-8908.3 -9933.5 -9722.9 -9825.3 -9854.5 -8552.4 -8559.6 -8559.1 -9671.1 
-9749.4 -9566 -9818.9 -9752.7 -9833.2 -9787.1 -9822.7 -9806 -9842.1 
-9785.8 -8614.9 -8638.2 -8770.2 -8740.2 -8868.2 -8834.8 -8965.6 -8705.5 
-8596.6 -8772 -9531.4 -9633.9 -9821.4 -9747.2 -8614.8 -8641.4 -9852.3 
-9813.5 -8537.4 -8586.9 -8664 -8585.6 -8619.5 -8688.5 -8573.5 -8625.3 
-8661.4 -8650 -9359 -9476.5 -9255.3 -9314.7 -9056.5 -9154.9 -8899.6 
-8966.4 -9100.8 -9022.1 -9260.9 -9159.8 -9452.3 -9365.4 -8729.2 -8668.5 
-9714 -9655.4 -9497.1 -9554.4 -8659.6 -8642.6 -8683.2 -9590.2 -9669.8 
-9510.6 -8894.6 -8818.5 -9018.6 -8935 -9688.5 -9635.4 -9711.7 -8738.7 
-8739.8 -9318.4 -9460.6 -8681.2 -8819.8 -8692.3 -8679.7 -9143.4 -9092.2 
-9140.6 -9211.6 -8697.1 -8773.5 -8720.6 -8777.9 -9822.6 -9780.6 -9765.6 
-8992.1 -9086.3 -8758.4 -8817.7 -9346.4 -9239.4 -9689.9 -9616.1 -9604.9 
-9666.3 -9654.2 -8694.4 -8716.1 -8715.1 -8767.8 -8744.6 -9541.6 -9392.6 
-9481.1 -9530.6 -8943.2 -8853.5 -8858.4 -8820.1 -8973.2 -8959.9 -9100.5 
-9663.7 -9709.6 -9557.8 -9699.5 -9636.3 -8815.1 -8832.8 -8787.4 -8848.1 
-8799.4 -8827.3 -8809.3 -8832.9 -9431.4 -9466.7 -9266 -9309.2 -9069.4 
-9196.3 -9215.4 -9130.4 -9535.9 -9558.8 -8829.4 -9626.2 -9004.2 -8936.3 
-9105 -9456.3 -9444.9 -9377.4 -9275.8 -9443.3 -9538.7 -8950.6 -8866.8 
-9009 -9499.8 -9494.1 -9503.4 -8924.1 -8985.3 -8927 -8967.8 -9300.6 
-9379.4 -9159.1 -9211.1 -8949.9 -9406.2 -9024.4 -9103.1 -9064.2 -9109.4 
-9219.7 -9070.1 -9138.4 -9129.4 -9272.9 -9231.9 -9371.7 -9420.3 -9332.1 
-9324 -9274.7 -9202.7 -9245.7 46459 48240 48006 45661 23639 
25435 24265 20628 3665.2 4960.3 3029.6 -63.954 -8751.1 -7988 
-8658.1 -9537.7 -11124 -10972 -10961 -11063 -11333 -11251 -11233 
-11283 -11415 -11362 -11350 -11383 -11456 -11396 -11387 -11424 
-11460 -11422 -11409 -11395 -11252 -11226 -11219 -11252 -11222 
-11402 -11757 -11250 -11440 -12035 -11127 -11462 -12028 -11119 
-11463 -11978 -11116 -11461 -11890 -11078 -11430 -11827 -11070 
-11399 -11788 -11063 -11392 -11791 -10994 -11385 -11822 -10943 
-11369 -11776 -10901 -11378 -11688 -10887 -11355 -11646 -10903 
-11329 -11663 -10949 -11316 -11680 -10884 -11313 -11701 -10913 
-11302 -11737 -10848 -11311 -11877 -10778 -11300 -12093 -10802 
-11253 -12085 -10891 -11190 -11496 -7066.7 -8375.1 -9540.2 -10116 
-10400 -10437 -10516 -10660 -10845 -10783 -10793 -10851 -10975 
-10933 -10922 -10941 -11052 -11017 -11003 -11008 -11105 -11076 
-11061 -11055 -11156 -11118 -11104 -11103 -11201 -11151 -11127 
-11115 -11155 -11143 -11141 -11149 -10895 -10897 -10900 -10925 
-11466 -11593 -11592 -11257 -11524 -11532 -11412 -11651 -11642 
-11484 -11679 -11693 -11017 -11198 -11151 -11024 -11156 -11142 
-11005 -11163 -11190 -10854 -11090 -11084 32197 33694 34244 
34206 7724.8 9631.1 10181 9449.8 -7922.2 -6858.8 -6586.2 -7219.8 
-10937 -10730 -10698 -10831 -11321 -11208 -11190 -11252 -11485 
-11408 -11395 -11423 -11564 -11509 -11499 -11511 -11620 -11589 
-11583 -11587 -11613 -11604 -11602 -11604 -11552 -11537 -11525 
-11529 -10418 -10338 -10337 -10417 -10567 -10503 -10504 -10568 
-10687 -10641 -10641 -10688 -10786 -10755 -10755 -10786 -10868 
-10846 -10847 -10869 -10935 -10920 -10922 -10939 -10996 -10981 
-10983 -11015 -11042 -11023 -11024 -11061 -11045 -11023 -11022 
-11034 -10751 -10736 -10728 -10732 -11574 -11639 -11891 -11681 
-11670 -12799 -11774 -11677 -12954 -11880 -11684 -13008 -11926 
-11688 -13103 -11941 -11691 -12952 -12035 -11697 -12982 -12133 
-11708 -13105 -12040 -11709 -13057 -11923 -11716 -12977 -11973 
-11701 -12986 -12116 -11680 -13035 -12090 -11678 -13187 -12074 
-11686 -13054 -11952 -11676 -12996 -11941 -11674 -13217 -11879 
-11672 -13225 -11784 -11666 -13130 -11670 -11655 -12899 -11605 
-11641 -12014 -10747 -11065 -11396 -10754 -11111 -11645 -10762 
-11134 -11681 -10758 -11141 -11665 -10767 -11145 -11650 -10756 
-11145 -11654 -10766 -11138 -11667 -10770 -11145 -11663 -10768 