# vtk DataFile Version 4.2
vtk output
ASCII
DATASET UNSTRUCTURED_GRID
POINTS 8741 float
-46.3952 -42.4991 29.6325 -46.3952 -30.4991 29.6323 -46.3952 30.5008 29.6312 
-46.3952 42.5008 29.631 -42.3955 46.5008 29.6805 -30.3964 46.5008 29.8293 
30.5989 46.5008 30.5856 42.598 46.5008 30.7344 46.5977 42.5008 30.7841 
46.5977 30.5008 30.7843 46.5976 -30.4991 30.7854 46.5976 -42.4991 30.7856 
42.5979 -46.4991 30.7361 30.5989 -46.4991 30.5873 -42.3955 -46.4991 29.6822 
-30.3964 -46.4991 29.831 30.7167 46.5007 21.0864 30.9771 46.5003 0.08798 
42.9761 46.5003 0.23676 42.7158 46.5007 21.2351 -30.2786 46.5007 20.33 
-42.2777 46.5007 20.1812 -42.0173 46.5003 -0.81714 -30.0182 46.5003 -0.66836 
46.7155 42.5007 21.2848 -46.2774 42.5007 20.1317 46.9758 42.5003 0.28643 
46.9758 30.5003 0.28664 46.7155 30.5007 21.285 -46.2774 30.5007 20.1319 
-46.017 30.5003 -0.86645 -46.017 42.5003 -0.86667 46.7154 -30.4993 21.2861 
-46.2774 -30.4993 20.133 46.9758 -30.4997 0.28774 46.9758 -42.4997 0.28796 
46.7154 -42.4993 21.2863 -46.2774 -42.4993 20.1332 -46.017 -42.4997 -0.86514 
-46.017 -30.4997 -0.86535 42.7157 -46.4993 21.2368 -42.2777 -46.4993 20.1829 
42.9761 -46.4997 0.23843 30.977 -46.4997 0.08965 30.7167 -46.4993 21.088 
-30.2786 -46.4993 20.3317 -30.0183 -46.4997 -0.66669 -42.0173 -46.4997 -0.81547 
-30.2786 -26.4993 20.3313 -26.2789 -30.4993 20.381 -26.2789 -42.4993 20.3812 
26.717 -42.4993 21.0384 26.717 -30.4993 21.0382 30.7167 -26.4993 21.0877 
42.7158 -26.4993 21.2365 42.7158 26.5007 21.2355 30.7167 26.5007 21.0867 
26.717 30.5007 21.0371 26.717 42.5007 21.0368 -26.2789 42.5007 20.3797 
-26.2789 30.5007 20.3799 -30.2786 26.5007 20.3304 -42.2777 26.5007 20.1816 
-42.2777 -26.4993 20.1826 56.4835 30.4996 -40.5986 56.4835 46.4996 -40.5989 
47.4842 55.4996 -40.7106 31.4854 55.4996 -40.909 31.4854 46.4996 -40.9089 
27.4857 42.4996 -40.9584 27.4857 41.6996 -40.9584 0.98776 41.6996 -41.2869 
0.98776 31.2996 -41.2868 27.4857 31.2996 -40.9582 27.4857 30.4996 -40.9582 
31.4854 26.4996 -40.9085 32.2854 26.4996 -40.8986 32.2854 -0.00044 -40.8981 
42.6846 -0.00044 -40.7692 42.6846 26.4996 -40.7696 47.4842 30.4996 -40.7102 
43.4845 26.4996 -40.7597 43.2613 46.4999 -22.7615 31.2622 46.4999 -22.9102 
31.2622 55.4999 -22.9104 47.261 55.4999 -22.712 56.2603 46.4999 -22.6003 
56.2603 30.4999 -22.6 47.261 42.4999 -22.7118 47.261 30.4999 -22.7116 
30.9771 46.5003 0.08798 26.9774 42.5003 0.03845 26.9774 30.5003 0.03867 
30.9771 26.5003 0.08833 42.9761 26.5003 0.23712 46.9758 30.5003 0.28664 
42.9761 46.5003 0.23676 46.9758 42.5003 0.28643 27.3369 31.2998 -28.9591 
27.3369 41.6998 -28.9593 0.83898 31.2998 -29.2877 0.83898 41.6998 -29.2879 
42.5358 26.4998 -28.7706 32.1366 26.4998 -28.8995 42.5358 -0.00022 -28.7701 
32.1366 -0.00022 -28.899 26.9774 42.5003 0.03845 26.9774 30.5003 0.03867 
30.9771 26.5003 0.08833 42.9761 26.5003 0.23712 -40.709 26.4996 -41.8037 
-40.709 -0.00044 -41.8032 -30.3098 -0.00044 -41.6743 -30.3098 26.4996 -41.6748 
-29.5099 26.4996 -41.6648 -25.5102 30.4996 -41.6153 -25.5102 31.2996 -41.6153 
0.98776 31.2996 -41.2868 0.98776 41.6996 -41.2869 -25.5102 41.6996 -41.6155 
-25.5102 42.4996 -41.6155 -29.5099 46.4996 -41.6652 -29.5099 55.4996 -41.6654 
-45.5087 55.4996 -41.8637 -54.508 46.4996 -41.9752 -54.508 30.4996 -41.9749 
-45.5087 30.4996 -41.8633 -41.509 26.4996 -41.8136 -54.7312 30.4999 -23.9763 
-54.7311 46.4999 -23.9765 -45.7318 55.4999 -23.8651 -29.7331 55.4999 -23.6667 
-29.7331 46.4999 -23.6666 -41.7321 46.4999 -23.8154 -45.7318 42.4999 -23.8649 
-45.7318 30.4999 -23.8647 -30.0182 46.5003 -0.66836 -26.0186 42.5003 -0.61869 
-26.0186 30.5003 -0.61847 -30.0182 26.5003 -0.668 -42.0173 26.5003 -0.81678 
-46.017 30.5003 -0.86645 -42.0173 46.5003 -0.81714 -46.017 42.5003 -0.86667 
-25.659 31.2998 -29.6162 -25.659 41.6998 -29.6164 0.83898 41.6998 -29.2879 
0.83898 31.2998 -29.2877 -40.8578 26.4998 -29.8046 -30.4586 26.4998 -29.6757 
-30.4586 -0.00022 -29.6752 -40.8578 -0.00022 -29.8041 -26.0186 42.5003 -0.61869 
-26.0186 30.5003 -0.61847 -30.0182 26.5003 -0.668 -42.0173 26.5003 -0.81678 
42.6845 -26.5004 -40.7687 42.6846 -0.00044 -40.7692 32.2854 -0.00044 -40.8981 
32.2853 -26.5004 -40.8976 31.4854 -26.5004 -40.9076 27.4857 -30.5004 -40.9571 
27.4857 -31.3004 -40.9571 0.98775 -31.3004 -41.2856 0.98775 -41.7004 -41.2854 
27.4857 -41.7004 -40.9569 27.4857 -42.5004 -40.9569 31.4854 -46.5004 -40.9072 
31.4854 -55.5004 -40.907 47.4842 -55.5004 -40.7086 56.4835 -46.5004 -40.5972 
56.4835 -30.5004 -40.5975 47.4842 -30.5004 -40.7091 43.4845 -26.5004 -40.7588 
56.2603 -30.5001 -22.5989 56.2603 -46.5001 -22.5986 47.261 -55.5001 -22.71 
31.2622 -55.5001 -22.9084 31.2622 -46.5001 -22.9086 43.2613 -46.5001 -22.7598 
47.261 -42.5001 -22.7103 47.261 -30.5001 -22.7105 30.977 -46.4997 0.08965 
26.9774 -42.4997 0.03998 26.9774 -30.4997 0.03976 30.9771 -26.4997 0.08929 
42.9761 -26.4997 0.23807 46.9758 -30.4997 0.28774 42.9761 -46.4997 0.23843 
46.9758 -42.4997 0.28796 27.3369 -31.3002 -28.958 27.3369 -41.7002 -28.9578 
0.83896 -41.7002 -29.2864 0.83896 -31.3002 -29.2866 42.5358 -26.5002 -28.7696 
32.1366 -26.5002 -28.8986 32.1366 -0.00022 -28.899 42.5358 -0.00022 -28.7701 
26.9774 -42.4997 0.03998 26.9774 -30.4997 0.03976 30.9771 -26.4997 0.08929 
42.9761 -26.4997 0.23807 -42.0173 -26.4997 -0.81583 -30.0182 -26.4997 -0.66704 
-26.0186 -30.4997 -0.61738 -26.0186 -42.4997 -0.61716 -29.5099 -26.5004 -41.6639 
-41.509 -26.5004 -41.8127 -40.709 -26.5004 -41.8027 -40.8578 -26.5002 -29.8037 
-30.4586 -26.5002 -29.6747 -30.3098 -26.5004 -41.6738 -25.5102 -42.5004 -41.614 
-25.5102 -30.5004 -41.6142 -25.5102 -31.3004 -41.6142 -25.659 -31.3002 -29.6151 
-25.659 -41.7002 -29.6149 -25.5102 -41.7004 -41.614 -45.7318 -42.5001 -23.8634 
-45.7318 -30.5001 -23.8636 -41.7322 -46.5001 -23.8137 -29.7331 -46.5001 -23.6649 
-40.8578 -0.00022 -29.8041 -30.4586 -0.00022 -29.6752 -30.3098 -0.00044 -41.6743 
-40.709 -0.00044 -41.8032 0.83896 -31.3002 -29.2866 0.83896 -41.7002 -29.2864 
0.98775 -31.3004 -41.2856 0.98775 -41.7004 -41.2854 -29.7331 -55.5001 -23.6647 
-45.7319 -55.5001 -23.8631 -54.7312 -46.5001 -23.9749 -54.7312 -30.5001 -23.9752 
-54.508 -30.5004 -41.9738 -45.5087 -30.5004 -41.8622 -54.508 -46.5004 -41.9735 
-29.5099 -46.5004 -41.6635 -29.5099 -55.5004 -41.6634 -45.5087 -55.5004 -41.8617 
-43.9261 -46.1947 29.6632 -45.2237 -45.3276 29.6471 -46.0907 -44.0299 29.6363 
-46.3952 -39.4991 29.6325 -46.3952 -36.4991 29.6324 -46.3952 -33.4991 29.6324 
-46.3952 -27.4492 29.6322 -46.3952 -24.3992 29.6322 -46.3952 -21.3491 29.6321 
-46.3952 -18.2992 29.6321 -46.3952 -15.2492 29.632 -46.3952 -12.1992 29.632 
-46.3952 -9.14915 29.6319 -46.3952 -6.09915 29.6319 -46.3952 -3.04915 29.6318 
-46.3952 0.00084 29.6318 -46.3952 3.05084 29.6317 -46.3952 6.10084 29.6316 
-46.3952 9.15084 29.6316 -46.3952 12.2008 29.6315 -46.3952 15.2508 29.6315 
-46.3952 18.3008 29.6314 -46.3952 21.3508 29.6314 -46.3952 24.4008 29.6313 
-46.3952 27.4508 29.6313 -46.3952 33.5008 29.6311 -46.3952 36.5008 29.6311 
-46.3952 39.5008 29.631 -46.0907 44.0316 29.6347 -45.2237 45.3293 29.6455 
-43.9261 46.1964 29.6615 -39.3957 46.5008 29.7177 -36.3959 46.5008 29.7549 
-33.3962 46.5008 29.7921 -27.3466 46.5008 29.8671 -24.2969 46.5008 29.9049 
-21.2471 46.5008 29.9428 -18.1973 46.5008 29.9806 -15.1476 46.5008 30.0184 
-12.0978 46.5008 30.0562 -9.04805 46.5008 30.094 -5.99828 46.5008 30.1318 
-2.94852 46.5008 30.1696 0.10125 46.5008 30.2075 3.15101 46.5008 30.2453 
6.20078 46.5008 30.2831 9.25054 46.5008 30.3209 12.3003 46.5008 30.3587 
15.3501 46.5008 30.3965 18.3998 46.5008 30.4344 21.4496 46.5008 30.4722 
24.4994 46.5008 30.51 27.5491 46.5008 30.5478 33.5987 46.5008 30.6228 
36.5984 46.5008 30.66 39.5982 46.5008 30.6972 44.1286 46.1964 30.7534 
45.4262 45.3293 30.7695 46.2932 44.0316 30.7803 46.5977 39.5008 30.7841 
46.5977 36.5008 30.7842 46.5977 33.5008 30.7843 46.5977 27.4508 30.7843 
46.5977 24.4008 30.7844 46.5977 21.3508 30.7845 46.5977 18.3008 30.7845 
46.5977 15.2508 30.7846 46.5977 12.2008 30.7846 46.5977 9.15084 30.7847 
46.5977 6.10084 30.7847 46.5977 3.05084 30.7848 46.5977 0.00084 30.7848 
46.5977 -3.04915 30.7849 46.5977 -6.09915 30.785 46.5977 -9.14915 30.785 
46.5976 -12.1992 30.7851 46.5976 -15.2492 30.7851 46.5976 -18.2992 30.7852 
46.5976 -21.3491 30.7852 46.5976 -24.3992 30.7853 46.5976 -27.4492 30.7853 
46.5976 -33.4991 30.7854 46.5976 -36.4991 30.7855 46.5976 -39.4991 30.7856 
46.2932 -44.0299 30.7819 45.4262 -45.3276 30.7711 44.1286 -46.1947 30.7551 
39.5982 -46.4991 30.6989 36.5984 -46.4991 30.6617 33.5987 -46.4991 30.6245 
27.5491 -46.4991 30.5495 24.4993 -46.4991 30.5117 21.4496 -46.4991 30.4739 
18.3998 -46.4991 30.436 15.35 -46.4991 30.3982 12.3003 -46.4991 30.3604 
9.25052 -46.4991 30.3226 6.20076 -46.4991 30.2848 3.15099 -46.4991 30.247 
0.10123 -46.4991 30.2091 -2.94854 -46.4991 30.1713 -5.9983 -46.4991 30.1335 
-9.04807 -46.4991 30.0957 -12.0978 -46.4991 30.0579 -15.1476 -46.4991 30.0201 
-18.1974 -46.4991 29.9822 -21.2471 -46.4991 29.9444 -24.2969 -46.4991 29.9066 
-27.3467 -46.4991 29.8688 -33.3962 -46.4991 29.7938 -36.396 -46.4991 29.7566 
-39.3957 -46.4991 29.7194 30.6774 46.5007 24.2528 30.6382 46.5008 27.4192 
30.9399 46.5004 3.08774 30.9027 46.5004 6.08751 30.8655 46.5005 9.08728 
30.8283 46.5005 12.0871 30.7911 46.5006 15.0868 30.7539 46.5006 18.0866 
33.9768 46.5003 0.12517 36.9766 46.5003 0.16237 39.9764 46.5003 0.19957 
42.9389 46.5004 3.23653 42.9017 46.5004 6.2363 42.8646 46.5005 9.23607 
42.8274 46.5005 12.2358 42.7902 46.5006 15.2356 42.753 46.5006 18.2354 
42.6765 46.5007 24.4016 42.6372 46.5008 27.568 -30.3179 46.5007 23.4965 
-30.3571 46.5008 26.6629 27.6669 46.5007 21.0485 24.6172 46.5007 21.0107 
21.5674 46.5007 20.9729 18.5176 46.5007 20.9351 15.4679 46.5007 20.8973 
12.4181 46.5007 20.8595 9.36833 46.5007 20.8216 6.31857 46.5007 20.7838 
3.2688 46.5007 20.746 0.21904 46.5007 20.7082 -2.83073 46.5007 20.6704 
-5.88049 46.5007 20.6326 -8.93026 46.5007 20.5947 -11.98 46.5007 20.5569 
[...]
CELL_DATA 12638
SCALARS cell_scalars float
LOOKUP_TABLE default
-9783.6 -9277.5 -9846.8 -9959.2 -9351.1 -10000 -9763.9 -9179.8 -9514.6 
-9063.7 -9571.6 -9174.8 -9701.5 -9321.2 -9799.3 -9446.2 -9895.1 -9540.8 
-9972.2 -9677.2 -10052 -9762.8 -10160 -9900.2 -10250 -9964.2 -10253 
-9923.1 -10217 -9872.4 -10198 -9845.7 -10214 -9812.2 -10120 -9714.8 
-10037 -9632.9 -9945.5 -9513.2 -9798.4 -9404.7 -9697.5 -9331.7 -9541 
-9204.6 -9444.1 -9050.9 -9353.1 -8912.1 -9203.6 -8728.8 -9022.7 -8514.2 
-8788 -8410.9 -8826.5 -8305.6 -8997.3 -8411.9 -9105.1 -8613.9 -9356 
-8743.2 -9591.6 -9563.5 -9009.3 -9508.2 -9350.9 -8829.5 -9276.9 -8776.3 
-9270.1 -8695.2 -9136.8 -8693.2 -9186.3 -8646.1 -9211.6 -8740.6 -9247.2 
-8687.1 -9186.8 -8676.3 -9183.7 -8682.4 -9137.8 -8685.7 -9128.5 -8676.5 
-9184.9 -8678.9 -9170.3 -8646.8 -9172.6 -8698.2 -9139.5 -8693.7 -9186.1 
-8683.5 -9157.9 -8669.6 -9183.8 -8707.6 -9186.5 -8673.4 -9194.8 -8702.6 
-9199.2 -8699.9 -9180.9 -8687.4 -9200 -8712.1 -9208.2 -8702.8 -9187.5 
-8692 -9186.4 -8714.2 -9168.6 -8691.8 -9168.1 -8713.9 -9274 -8778.6 
-9338.2 -9479.1 -9008.9 -9569.7 -9593.3 -8773.1 -9374.9 -8618.3 -9138.3 
-8490.1 -8998.5 -8354.5 -8700.5 -8259 -8859.4 -8484.9 -9023 -8658.2 
-9186.6 -8874.5 -9385.4 -9072.7 -9452.5 -9203.9 -9546.3 -9336.1 -9703.8 
-9425.3 -9804.1 -9521.9 -9935.8 -9641.6 -10023 -9712 -10094 -9790.9 
-10204 -9822.4 -10177 -9867.6 -10211 -9927.4 -10249 -9965.3 -10243 
-9881.6 -10159 -9756.3 -10027 -9643.8 -9979.4 -9532.3 -9875.6 -9401.9 
-9767.7 -9286 -9652.8 -9146 -9546.8 -9047.1 -9501 -9115.4 -9944.8 
-9845 -9275.5 -9800.1 -9837.9 -9033 -9396.9 -8972.9 -9585.8 -8855.1 
-9470.9 -8901.4 -9446.3 -8881 -9563.1 -8879.7 -9464.5 -8854.1 -9535.6 
-8850.7 -9466.2 -8897 -9521.4 -8881.9 -9440.9 -8857.6 -9456.3 -8886.7 
-9488.3 -8883.4 -9561.4 -8895.9 -9463.5 -8903.7 -9544.6 -8897.9 -9528.6 
-8893.2 -9481.7 -8888.1 -9558.6 -8855.7 -9475.6 -8880.1 -9543.6 -8859.8 
-9431.7 -8819 -9413.4 -8862.4 -9459.9 -8818 -9397.8 -8839.8 -9433.6 
-8831 -9536.4 -8818 -9307.7 -8881.2 -8777.2 -8734.5 -8677 -8661.1 
-8598.9 -8550.1 -8382.8 -8414.8 -8282.1 -8352.2 -8281.5 -8361.1 -8415.5 
-8358.3 -8251.2 -8267.8 -8657.3 -8594.2 -8817.7 -8724.7 -8971.1 -8850.6 
-9099.4 -8955.7 -9245 -9120.5 -9387.7 -9270.7 -9526.9 -9453.6 -9651.2 
-9573.8 -9681.7 -9701 -9630.7 -9622 -9583.9 -9559.8 -9529.7 -9510.2 
-9492.6 -9444.8 -9428.2 -9373.8 -9336.5 -9324.5 -9255.2 -9230.7 -9142.4 
-9175.5 -9034.1 -9032.8 -8929.6 -8976.1 -8813.9 -8806.7 -8581 -8686.7 
-8440.1 -8516.2 -8305.6 -8434.4 -8081.9 -8255.3 -8127.8 -8079 -8107.9 
-8180.6 -8726.9 -8700.3 -8688.4 -8517.5 -8551.8 -8556.4 -8514.9 -8539 
-8547.3 -8579.1 -8541.6 -8546.9 -8575.7 -8535.6 -8495 -8529.8 -8550.5 
-8553.7 -8506.8 -8527.2 -8559.2 -8546.6 -8507.4 -8530.8 -8542.1 -8538.9 
-8547.7 -8543.3 -8545.7 -8543.9 -8533.7 -8534 -8518.2 -8532.9 -8548.7 
-8528.3 -8536.3 -8524.5 -8546.5 -8535.3 -8528.7 -8533.4 -8522.7 -8532.1 
-8520.7 -8545 -8507.5 -8567.5 -8536.5 -8570.1 -8542.4 -8549.5 -8522.6 
-8357.5 -8253.2 -8364.5 -8247 -8298.2 -8343.3 -8311.7 -8223.6 -8257.3 
-8251.1 -8343.2 -8196 -8348.7 -8315 -8380.4 -8264.2 -8341.7 -8314.4 
-8374.6 -8279.1 -8352.2 -8324.7 -8347.8 -8326.2 -8350.4 -8299.6 -8322.7 
-8277.9 -8340.1 -8297.9 -8324.6 -8309 -8326.8 -8291.4 -8303.6 -8289.6 
-8269 -8255.4 -8255.7 -8225.1 -8261.1 -8201.6 -8275.9 -8198.5 -8289 
-8218.6 -8344.5 -8276.5 -8295.3 -8224 -8351 -8236.1 -8236.6 -8270.8 
-8183.8 -8191.4 -8217.4 -8160.8 -8071 -8168.5 -8276.1 -8190.7 -8492 
-8384.9 -8590.6 -8544.6 -8781.2 -8724.1 -8918.5 -8825.8 -9034.7 -8977.7 
-9135.5 -9022 -9243.2 -9155.4 -9342.8 -9236.1 -9387.7 -9347.7 -9505 
-9382.5 -9513.1 -9451.8 -9584.9 -9501.3 -9629.3 -9554.1 -9686 -9611.8 
-9688.6 -9664.5 -9522.7 -9563 -9390.4 -9430.3 -9242.4 -9279.3 -9079.8 
-9105.7 -8934.5 -8925.1 -8819.4 -8825.2 -8743 -8735.2 -8267.9 -8571.6 
-8280.2 -8239.8 -8650 -8190.9 -8563.2 -8556 -8545.6 -8646.6 -8594.4 
-8241.2 -8197.6 -8138.5 -8178.6 -8759.1 -8700.8 -8107.9 -8133.9 -8510.9 
-8480 -8871 -8809.9 -8093.4 -8053.6 -9039.8 -8951.1 -9193.7 -9122.5 
-9376.8 -9316.6 -9502.9 -9417.7 -9603.1 -9588 -9601 -9624.5 -9542.1 
-9577.5 -9486.2 -9525.2 -9425.2 -9481.4 -9367.9 -9435.7 -9317.3 -9343 
-9239.8 -9306.6 -9159 -9195 -9061.7 -9155.6 -9026.5 -9130.6 -8923.2 
-9059.5 -8840.3 -8952.7 -8782.9 -8911.8 -8556 -8759.5 -8334.5 -8461.1 
-8115.9 -8181.6 -8314.8 -8255.9 -8503.9 -8456.2 -8708 -8652.3 -8850.1 
-8848.9 -8943.7 -8990.2 -9075.2 -9059.5 -9087.5 -9141.3 -9148.5 -9185 
-9223.7 -9192.6 -9301.5 -9305 -9364 -9369.8 -9441 -9421.8 -9489.3 
-9475.4 -9542.9 -9527.6 -9595.9 -9594.2 -9592.3 -9634.4 -9483.3 -9552.9 
-9354 -9428 -9241.5 -9288.2 -9081.4 -9150.6 -8931.9 -8991.8 -8725.8 
-8821.3 -8064 -8075.5 -8674 -8717.2 -8518.8 -8541.5 -8565.3 -8553.3 
-8523.4 -8565.3 -8603.2 -8597.7 -8616.3 -8613.6 -8626.7 -8685.3 -8578.3 
-8589 -8568.9 -8622.3 -8583.5 -8628.2 -8577.4 -8619.9 -8600.9 -8624.2 
-8589.4 -8605.6 -8592.3 -8609 -8621.6 -8604.7 -8651.3 -8661.6 -8649.1 
-8688.6 -8636.4 -8701 -8645 -8687.9 -8650.4 -8691.6 -8632.7 -8679.5 
-8624.9 -8671.2 -8581 -8618.8 -8550.6 -8579.4 -8560.7 -8579.7 -8205.6 
-8162.3 -8249.7 -8155.4 -8153.9 -8158 -8290.2 -8199.1 -8191.6 -8206 
-8158.1 -8180.2 -8196.8 -8147.6 -8155.8 -8173.8 -8166.9 -8216.1 -8155.1 
-8186.3 -8175.9 -8176 -8155.1 -8156 -8172.2 -8166.7 -8178.9 -8136.9 
-8183.8 -8133.4 -8156 -8153.5 -8137.9 -8150.2 -8179 -8149.8 -8228 
-8121.6 -8269.7 -8230.2 -8197.6 -8292 -8221.4 -8224.2 -8146 -8173 
-8078.8 -8145.9 -8247.4 -8154.9 -8143.2 -8602.5 -8512.1 -8523.8 -8582.2 
-8639.7 -8565.7 -8144.3 -8155.4 -8223.9 -8050.8 -8160.9 -8223.7 -8128.2 
-8155.5 -8120.4 -8168.1 -8010.8 -8711.7 -8630 -8606.1 -8648.6 -8850.5 
-8739.8 -8986.8 -8879.6 -8328.4 -8112 -8627.2 -8660.9 -8155.9 -8106.5 
-9157.9 -9070 -8520.8 -8370.1 -8544.2 -8530.9 -9293.4 -9216.5 -9412.4 
-9361.1 -9570.5 -9491.6 -9654.3 -9642 -9622.3 -9637.9 -9559.2 -9586.2 
-9522.2 -9553.4 -9465.8 -9494.5 -9411.2 -9432 -9332.1 -9381.6 -9279.7 
-9300.3 -9294.9 -9233 -9188.4 -9257.5 -9152.7 -9185.9 -9056.9 -9105.5 
-8852.1 -8923.7 -8627.4 -8707.1 -8522.2 -8455.4 -8289.9 -8365.5 -8086.3 
-8123 -8748.3 -8622.9 -8906.4 -8819.3 -9026.1 -8944.3 -9178.3 -9071.7 
-9263.4 -9185.8 -9253.6 -9286.4 -9263.1 -9240.6 -9323.3 -9324.8 -9403 
-9371.9 -9486 -9426.8 -9527.1 -9497.8 -9572 -9542.2 -9624.9 -9569.5 
-9645.7 -9626 -9548.3 -9609.9 -9447.3 -9505.6 -9305.9 -9386.5 -9114.8 
-9182.9 -8981.8 -9041.5 -8848.6 -8900.3 -8665.4 -8757.5 -8612 -8653.9 
-8654 -8713.8 -8720.2 -8685.2 -8745.6 -8785.6 -8762.2 -8813.3 -8771.9 
-8797.3 -8773.4 -8788.6 -8763.7 -8791 -8759.7 -8808.6 -8773.6 -8779.2 
-8748.1 -8794.6 -8737.2 -8765.4 -8705.4 -8735.7 -8698.7 -8717.2 -8694.7 
-8707.1 -8679.2 -8714.9 -8683.5 -8708 -8662.8 -8689.7 -8641.8 -8695.2 
-8638.5 -8702.2 -8602.4 -8639.5 -8113.2 -8114.8 -8093.6 -8142.5 -8260.7 
-8169 -8135.1 -8221 -8095.1 -8139.8 -8117.1 -8112.2 -8120.1 -8039 
-8109.5 -8075.8 -8144.9 -8097.8 -8142.1 -8066 -8169.3 -8108 -8233.9 
-8196.5 -8241.2 -8249.5 -8240.6 -8254.1 -8233.1 -8240.5 -8239.9 -8253.8 
-8204.7 -8146.8 -8154.1 -8135.3 -8144.2 -8084.3 -8184.7 -8178.7 -8139.9 
-8171.6 -8199.2 -8198.9 -8542.3 -8560.5 -8642.7 -8165.9 -8149 -8640.8 
-8633.7 -8671.5 -8092 -8226.3 -8755.3 -8720 -8120.3 -8156.2 -8071.8 
-8099.6 -8123.9 -8761.2 -8694.3 -8717.6 -8920.2 -8847.3 -9013.7 -8962.9 
-9202.6 -9099.9 -8115.4 -8130.5 -8263.3 -8265.5 -8557.7 -8464.8 -8909.9 
-8852.5 -8200.1 -8204.7 -8089.5 -8097.7 -8718.2 -8759.6 -8120 -8065.9 
-9033.8 -8973.4 -8207.3 -8201.7 -8785.2 -8789.3 -9330.7 -9289.1 -8698 
-8772.5 -8211.1 -8111.5 -8097.2 -8240.2 -8041.6 -8022.4 -8051 -8026.9 
-8083.5 -8042.8 -8127.6 -8043.4 -8104.2 -8068.2 -8135 -8147.4 -8294.4 
-8139.7 -8276.6 -8221.9 -8282.8 -8214.6 -8259.8 -8205.4 -8247.7 -8236.4 
-8224 -8310.6 -8261.6 -8324.2 -8774.1 -8831.1 -8807 -8807.1 -8851.1 
-8872.4 -8841.4 -8867.4 -8798.6 -8872.7 -8768 -8842.7 -8786.1 -8835.7 
-8789.2 -8834 -8804.3 -8815.6 -8797.1 -8819.6 -8795.9 -8806.1 -8803.9 
-8801.6 -8791 -8811.1 -8780.9 -8828.8 -8788.4 -8846.4 -8619.1 -8443.9 
-8816.2 -8727.6 -8807.6 -8799.3 -8911.1 -8893.4 -9104 -9006.6 -9168.5 
-9114 -9225.4 -9186.4 -9284.4 -9296 -9347.5 -9302.9 -9393.7 -9364.2 
-9445.5 -9413.5 -9531.9 -9478.2 -9575.3 -9527.2 -9629.3 -9565.1 -9644.3 
-9632.4 -9480.8 -9549.4 -9185.3 -9097.6 -9333.3 -9241.1 -9511.9 -9387.1 
-9618.7 -9586.7 -9580.3 -9589.4 -9509.1 -9532 -9510.6 -9493.3 -9445.1 
-9456.6 -9402.4 -9433.4 -9328.9 -9383 -9303.6 -9295.3 -9229.1 -9230.8 
-9157.9 -9182.4 -9079 -9073.9 -8925.2 -9036.8 -8800.7 -8858.7 -8146.7 
-8212.7 -8782.6 -8816.9 -8050.8 -8125.6 -8795 -8836.2 -8143 -8212.4 
-8765.2 -8845.9 -8190.4 -8053.7 -8769.3 -8784.6 -9402.7 -8796.7 -8782.3 
-8178.9 -8071.1 -8198.6 -8843.2 -8823 -8842.4 -8887.8 -8947 -8851.5 
-8083.5 -8101.9 -8136.8 -8088.9 -8968.9 -8953.3 -9143 -9063.2 -9248.6 
-8190.1 -8235.4 -8428.6 -8361.8 -8599.2 -8624.9 -8855.5 -8870.3 -8058.2 
-8122 -8887.2 -8933 -8922.5 -8946.7 -8915.8 -8943.9 -8917.8 -8963.1 
-8909.3 -8929.6 -8905.6 -8978.9 -8923.5 -8948.4 -8914.6 -8978.1 -8923.7 
-8986.8 -8904.9 -8987.5 -8962.6 -8975.3 -8970 -9011.2 -8938.9 -8989.2 
-8885.4 -8960.5 -8868.7 -8909.7 -8880.6 -8940.4 -8915 -8900.6 -8887.4 
-8942.9 -8189.6 -8097.3 -8088.1 -8081.8 -8018.7 -8055.7 -8067.4 -8046 
-7997.3 -8096.3 -8005 -8058.5 -8077.3 -8042.6 -8060.3 -8021.6 -8024.2 
-8101.8 -8020.3 -8067.7 -8031.7 -8024.8 -8060.1 -8000.1 -8088.9 -7952 
-8201.1 -8295.2 -8283.8 -8274.9 -8272.7 -8195.7 -8152.7 -8223.6 -8021.1 
-8057.5 -8396.4 -8313.2 -8637 -8430.5 -8849.5 -8746.6 -8997.4 -8945.9 
-9164.5 -9140.9 -9265.2 -9193 -9334.4 -9313.1 -9278 -9313.9 -9344.5 
-9300 -9303.8 -9348.1 -9380 -9365.4 -9444.8 -9425.4 -9489.9 -9475.1 
-9542.3 -9534.1 -9577.7 -9589.6 -9564.9 -9592.8 -9093.7 -9011.3 -9284.5 
-9204.6 -9424.7 -9365 -9544.3 -9499.5 -9644.2 -9643.5 -9610.2 -9639.2 
-9551.2 -9604.5 -9454.9 -9505.1 -9403.8 -9427.8 -9337.6 -9357.3 -9305.7 
-9322.8 -9217.9 -9245 -9311.7 -9281.3 -9270.3 -9274.5 -9162.7 -9249.4 
-9053.2 -9092.6 -8085.5 -8951 -8164.5 -8342.2 -8181.4 -8912.4 -8920.1 
-9022.5 -8807 -8755.9 -8942.3 -9511.7 -9413.3 -9284.6 -9371.7 -9010.7 
-9015.2 -9098.9 -8220.4 -8226.5 -8285.1 -8587.2 -8431.7 -9026.2 -9052.6 
-9057.9 -9084.6 -9056.1 -9110.2 -9053.2 -9122.4 -9081.8 -9111 -9052.3 
-9084.3 -9080.9 -9107.7 -9054.4 -9097.1 -9063.3 -9089.1 -9026.5 -9088 
-9023 -9059.6 -9010.1 -9067.6 -9039.7 -9059.7 -9044.4 -9088.7 -9040 
-9051.1 -9029.9 -9049.5 -9022.7 -9065.9 -8165.8 -8310.8 -8297.1 -8238.2 
-8160.6 -8389.8 -8257.5 -8359.2 -8243.2 -8360.4 -8287.8 -8220.3 -8182.9 
-8228.8 -8282.8 -8263.4 -8194.5 -8223.9 -8134.2 -8201.3 -8098.2 -8157.3 
-8027.8 -8273.3 -8382.9 -8404.2 -8368.3 -8401.9 -8258.8 -8416 -8392.5 
-8319.6 -8145.1 -8290.6 -8568.6 -8418.8 -8710.1 -8613.3 -8836 -8827.4 
-9011.4 -8878.5 -9084.2 -9020.4 -9235.8 -9143.6 -9270.2 -9257.1 -9372.9 
-9321.1 -9384.4 -9381.8 -9421.3 -9426.1 -9451 -9466.7 -9541.5 -9500.5 
-9589.7 -9569.2 -9631.3 -9600.2 -9638.9 -9640.3 -9191.8 -9116.7 -9049.9 
-9338.7 -9267.6 -9481.3 -9387.6 -9654.8 -9555.2 -9586.1 -9613.6 -9549.2 
-9545.5 -9539.3 -9540.5 -9468.8 -9503 -9421.6 -9457.3 -9364.6 -9442.9 
-9346 -9353.5 -9318.2 -9349.4 -9258.9 -9270.8 -9141.4 -9192 -9064.1 
-9096.3 -9033.9 -9073.1 -8227.3 -8449.5 -9248.8 -9167.1 -9125 -9183.5 
-9196.1 -9174.3 -9260.5 -9139.8 -9201.6 -8388.7 -8445.2 -9134.5 -9161.2 
-8742.9 -8652.2 -8940.2 -8860.9 -8999.9 -9180.3 -9193.2 -9128.1 -9186.5 
-9142.7 -9190 -9148.3 -9190.4 -9170.8 -9214.7 -9138.3 -9207.6 -9130.6 
-9173.7 -9120.2 -9140.7 -9131.6 -9159.3 -9132.9 -9160.5 -9111.7 -9180 
-9583.1 -9510.4 -9382.7 -9448.1 -9187.8 -9187.7 -9160 -9181.2 -9178.5 
-9199 -8735.1 -8559.4 -8453.7 -8525.2 -8356.5 -8488.8 -8355.3 -8431.6 
-8383 -8428.1 -8424.4 -8482.8 -8469 -8395.6 -8546.8 -8586.7 -8483.3 
-8596.5 -8413.7 -8522.9 -8346.6 -8504.5 -8348.6 -8536 -8339.8 -8511.8 
-8423.8 -8428 -8356.7 -8502.6 -8407.3 -8404 -8393.4 -8485.1 -8853 
-8707.7 -8993.5 -8846.9 -9162.5 -9065 -9246 -9188.9 -9263.2 -9190.5 
-9260.3 -9286.7 -9299.7 -9264.1 -9371.8 -9339.6 -9378.8 -9326 -9462.5 
-9413.2 -9518.7 -9485.8 -9552.8 -9522.3 -9598.3 -9548.9 -9424.4 -9356.4 
-9563.9 -9505.1 -9629.7 -9566 -9589.9 -9625.7 -9521.8 -9550.6 -9442.3 
-9493.5 -9426.3 -9406.7 -9333.6 -9357.1 -9326.3 -9316.5 -9282.8 -9310.2 
-9236.8 -9255.8 -9119.8 -9226.6 -9096.8 -9136.5 -9206.3 -9291.7 -8508.2 
-9283.8 -9327.6 -9260.3 -9302.1 -9247.6 -9281.3 -9299.5 -9275.8 -8662.3 
-8639.7 -8618.2 -8729.1 -8617.4 -9472.1 -9396.7 -9594.4 -9525.4 -9638.1 
-8925.2 -8835.4 -8886.5 -8782.1 -8970.5 -8921 -9051.2 -9505.4 -9419.4 
-8588.8 -8690.4 -8577.5 -8685.1 -8560.6 -8646.7 -8644.2 -8699 -8563.1 
-8686.8 -8575.9 -8654.3 -8648.5 -8647.3 -8672.4 -8687.2 -8718.2 -8727.2 
-8710.5 -8781.8 -8787.4 -8740.5 -8713.5 -8797.1 -8627.3 -8725.9 -8642.7 
-8679.2 -9024.1 -9021.5 -9087.1 -9059.9 -9201.7 -9208.4 -9356.1 -9250.2 
-9331.9 -9361 -9403.8 -9355.4 -9352.9 -9392.1 -9448 -9419.8 -9495.5 
-9486.5 -9530.1 -9525.1 -9582.7 -9563.5 -9558.6 -9524.7 -9592.9 -9616.1 
-9562.8 -9562.9 -9518.1 -9571.9 -9490 -9475.6 -9404.8 -9478.3 -9398.5 
-9386.5 -9328.3 -9389.9 -9343 -9355.1 -9315.8 -9307.1 -9211 -9302.3 
-9251 -9285.7 -9254.2 -9329.2 -9267.1 -9270.9 -9290.6 -9308 -9307.8 
-9328.2 -9297.3 -9345.3 -9307.2 -9357.1 -9287.9 -9348.8 -9289.5 -9348 
-9273.5 -9292 -9233.8 -9297.8 -9242.8 -9298.1 -8681.4 -9425.3 -9364.8 
-9389.8 -9389.7 -8822.6 -8746.9 -8954.3 -8903.1 -8721.7 -8801.4 -8733.5 
-9548.7 -9494 -9052.1 -9029.1 -8759.4 -8808.2 -9609.1 -9580.1 -8770.3 
-8812.3 -9170.3 -9139.2 -9582 -9599.9 -8784.3 -8819.8 -9377.7 -9394.3 
-8866.3 -8843.8 -8732.2 -8820.8 -8764.8 -8866.1 -8731.4 -8866.5 -8714.7 
-8794.7 -8680 -8815.8 -8697.9 -8725.8 -8758.3 -8797.7 -8728.8 -8782.3 
-8828.7 -8893.1 -9595.6 -9621.9 -9528.7 -9614.4 -9376.7 -9443.2 -9309 
-9290.1 -9328 -9285.1 -9252.1 -9264.2 -9268.7 -9259.2 -9367.7 -9258 
-9407.8 -9419 -9478 -9406.8 -9514.9 -9467 -9548.7 -9504.4 -9603.1 
-9559.8 -9531.6 -9552 -9482.5 -9518.7 -9406 -9453.9 -9380.1 -9398.7 
-9324.3 -9339.1 -9324.9 -9276.1 -9260.7 -9278.3 -9149.6 -9176 -9142.6 
-9091 -8935.1 -9047.3 -9370.6 -9428.9 -9356.1 -9411.6 -9355.1 -9389.5 
-9382 -9419.6 -9365.5 -9384.8 -9369.5 -9410.8 -9389.6 -9389.8 -9421 
-9411.3 -9404.5 -9481.8 -9412.8 -9431.3 -8846.8 -9483.1 -8864.5 -8942.4 
-8884.2 -9073.7 -9017.4 -9095.8 -8789.4 -8901.8 -8804.7 -8967.3 -8952.8 
-9081.5 -9081.3 -9116 -9500.7 -9516.4 -9616.8 -9604.7 -9597.4 -9615.5 
-9631.8 -9593.6 -9651.2 -9479.2 -9498 -9429.8 -9390.5 -9441.3 -9439.3 
-9514 -9550 -9524.3 -9532 -9522.3 -9549.3 -9542.5 -9577.9 -9534.9 
-9587.4 -9519.9 -9577.5 -9532.1 -9561.1 -9484.2 -9570.5 -9500.6 -9523.6 
-9528.4 -9544.4 -9176 -9154.1 -9357.6 -9303.5 -9307.3 -9385.7 -9319 
-9327.7 -9332.4 -9324.5 -9375.1 -9358.3 -9428.7 -9415.2 -9487.9 -9445.3 
-9554.2 -9605 -9486.5 -9557.2 -9516.3 -9480.5 -9444 -9484.4 -9402.5 
-9430.1 -9358.5 -9398.7 -9352.4 -9395 -9261.5 -9357.9 -8903.5 -8865.1 
-8878 -8939 -8871.7 -8894.7 -8967.7 -8972.2 -8959.4 -9051.2 -9034 
-8984.6 -9003.2 -9020.5 -8930.7 -8972.8 -8955.7 -8972 -8965.5 -8937 
-8965.3 -8889.6 -9025.3 -9006.3 -9111.5 -9094.8 -8915.3 -8944.5 -8900.3 
-9027.6 -8954.2 -9556.2 -9536 -9511.5 -9577.2 -9559.5 -9593.2 -9577.1 
-9240.4 -9089.9 -9179.9 -9599.1 -9612.6 -9612.6 -9558.9 -9540.8 -9575.6 
-9629.5 -9617.9 -9633.3 -9616.5 -9592.5 -9600.8 -9627.6 -9634.1 -9583.7 
-9637.4 -9588.3 -9613 -9554.9 -9595.1 -9613 -9611.1 -9572.8 -9612.3 
-9169.4 -9199.2 -9018.5 -9016.7 -9038.7 -9055.2 -9008.1 -9088.5 -8887.5 
-8978.3 -8916.1 -9013.4 -8971.8 -8983 -8934.2 -8989.2 -9019.3 -8964.3 
-9104.7 -9065.8 -9059.5 -9078.1 -9337.2 -9282.5 -9375.8 -9317.8 -9381.4 
-9426.1 -9447.4 -9447.5 -9481.5 -9455 -9558.7 -9489.5 -9553.4 -9554.9 
-9586.9 -9488.1 -9488.3 -9406.6 -9464.7 -9397.4 -9415 -9320.3 -9355 
-9354 -9351.3 -9283.9 -9267.5 -9598.6 -9612.4 -9068 -8975.3 -9063.9 
-9080.4 -9587.2 -9588.8 -9626.8 -9602.3 -9533 -9536.8 -9492.5 -9532.6 
-9463.5 -9476.1 -9237.6 -9101 -9135.6 -9188.8 -9136.3 -9136.8 -9403.7 
-9438.2 -9175 -9165.6 -9615.8 -9626.7 -9539.7 -9591.4 -9564.6 -9637 
-9628.2 -9239.3 -9194.5 -9257 -9137.9 -9179.4 -9080 -9106 -9191.9 
-9171.3 -9172.5 -9167.6 -9163.8 -9207.7 -9146.3 -9161.1 -9372.7 -9397.8 
-9446.3 -9422.8 -9379.1 -9404.3 -9604.6 -9599.2 -9595.8 -9581.2 -9569 
-9578.5 -9595.2 -9585 -9609.3 -9581.6 -9632.5 -9612.2 -9268.5 -9215.6 
-9314.2 -9240.9 -9344.6 -9317.5 -9435.2 -9371.1 -9423.5 -9402.3 -9495.4 
-9456.3 -9179.8 -9246.8 -9197.4 -9211.2 -9598.4 -9589.4 -9592.3 -9254 
-9219 -9359.1 -9186.8 -9243.6 -9146.2 -9209.8 -9197 -9182.1 -9179.1 
-9204 -9580 -9543 -9479.1 -9527.9 -9464.6 -9464.9 -9432.1 -9553.3 
-9571.1 -9539.9 -9382.2 -9301.1 -9189.6 -9186 -9551.1 -9554.1 -9139.5 
-9190 -9565.9 -9541.2 -9584.7 -9562 -9558.4 -9556.1 -9565.1 -9553.6 
-9576.3 -9554.1 -9409.5 -9406.9 -9395.2 -9377.5 -9386.6 -9411.2 -9444 
-9452.4 -9387.8 -9418.4 -9378.6 -9393.5 -9276.5 -9367.8 -9506.7 -9508 
-9310.5 -9301.1 -9356.2 -9322.1 -9567 -9536.3 -9571.4 -9229.5 -9262.5 
-9304.5 -9472.1 -9480.7 -9418.1 -9440.8 -9305.7 -9286 -9201.7 -9532.4 
-9519.5 -9338 -9280 -9540.2 -9515.5 -9554.7 -9521.1 -9394.5 -9368.8 
-9424.9 -9391.1 -9551 -9509.1 -9504.8 -9508.9 -9137.8 -9144.4 -9278.5 
-9434.3 -9386.3 -9512.4 -9494.9 -9366.9 -9397.3 -9209.1 -9243.6 -9319.9 
-9302.5 -9290.7 -9536.5 -9521 -9534.7 -9497.3 -9509.3 -9330.9 -9343.2 
-9369.4 -9323.3 -9441.8 -9455.5 -9458.1 -9467.9 -9418.7 -9458.5 -9412.8 
-9312.8 -9282.9 -9301.6 -9243.9 -9338.5 -9458.6 -9455.5 -9477.9 -9494 
-9492.8 -9461.7 -9469.6 -9488.7 -9344.6 -9318.8 -9300 -9386.2 -9434 
-9367 -9394.4 -9363.9 -9309.6 -9310 -9477.2 -9317.4 -9449.3 -9427.4 
-9402.9 -9342.5 -9351.4 -9341 -9382.2 -9368.8 -9345.4 -9473.4 -9477 
-9446.4 -9328.6 -9332.5 -9333.2 -9436.7 -9438.8 -9444.9 -9461.8 -9387.2 
-9402.6 -9439.6 -9396.3 -9421.9 -9396.2 -9406.9 -9393.4 -9405.6 -9397.7 
-9413.9 -9395.5 -9395.5 -9346.9 -9378.5 -9394.7 -9386.2 -9363.2 -9325.8 
-9340.6 -9332.7 -9385.6 -9399 39343 43629 46038 46097 15519 
19813 22356 22497 -3506.9 -754.42 1249.4 1177 -10040 -9601 
-9246.1 -9310 -10584 -10484 -10445 -10489 -10727 -10685 -10680 
-10728 -10801 -10784 -10798 -10846 -10858 -10836 -10832 -10868 
-10854 -10848 -10861 -10879 -10523 -10492 -10467 -10411 -10473 
-10899 -11082 -10545 -10931 -11708 -10596 -10942 -11924 -10626 
-10963 -11689 -10621 -10954 -11513 -10644 -10971 -11486 -10668 
-10981 -11547 -10679 -10983 -11509 -10731 -10973 -11518 -10758 
-10968 -11502 -10733 -10938 -11471 -10733 -10940 -11434 -10616 
-10948 -11416 -10611 -10957 -11380 -10610 -10961 -11349 -10612 
-10961 -11318 -10590 -10928 -11286 -10573 -10904 -11265 -10560 
-10876 -11234 -10513 -10838 -10995 -2337.9 -3902.2 -6019.6 -7462.4 
-9628.2 -9662.9 -9828.3 -10074 -10370 -10316 -10347 -10442 -10583 
-10542 -10546 -10588 -10689 -10662 -10659 -10676 -10756 -10737 
-10732 -10736 -10806 -10785 -10791 -10788 -10845 -10815 -10797 
-10807 -10826 -10820 -10827 -10832 -10489 -10451 -10430 -10450 
-10503 -10832 -10847 -10676 -10931 -10932 -10710 -10929 -10928 
-10695 -10914 -10922 -10746 -10864 -10830 -10697 -10870 -10829 
-10652 -10866 -10819 -10722 -10856 -10825 20253 19650 19630 
20318 -3537.4 -4127.8 -4155.5 -3603.1 -9510.5 -9365.8 -9362.5 -9491.2 
-10143 -9995.1 -9991.3 -10125 -10493 -10399 -10396 -10482 -10656 
-10604 -10600 -10645 -10756 -10708 -10704 -10733 -10810 -10772 
-10769 -10792 -10772 -10758 -10758 -10780 -10414 -10407 -10406 
-10440 -9871.5 -9792.2 -9781.4 -9838.3 -10357 -10317 -10315 -10351 
-10540 -10520 -10519 -10535 -10631 -10624 -10622 -10627 -10696 
-10693 -10691 -10692 -10735 -10728 -10727 -10734 -10766 -10759 
-10757 -10765 -10845 -10852 -10856 -10869 -10819 -10804 -10801 
-10807 -10496 -10586 -10555 -10565 -10433 -10806 -11005 -10454 
-10852 -11262 -10435 -10873 -11286 -10438 -10884 -11316 -10435 
-10888 -11324 -10430 -10890 -11326 -10450 -10893 -11326 -10448 
-10895 -11332 -10437 -10893 -11331 -10434 -10893 -11332 -10449 
-10893 -11330 -10443 -10893 -11331 -10456 -10894 -11325 -10450 
-10893 -11323 -10446 -10890 -11333 -10449 -10888 -11338 -10436 
-10884 -11317 -10435 -10874 -11321 -10447 -10853 -11265 -10424 