# vtk DataFile Version 4.2
vtk output
ASCII
DATASET UNSTRUCTURED_GRID
POINTS 8741 float
-48.6646 -42.4636 30.4366 -48.6649 -30.4636 30.427 -48.6664 30.5364 30.3778 
-48.6667 42.5364 30.3681 -44.6686 46.5364 30.2446 -32.674 46.5364 29.8838 
28.2984 46.5364 28.0496 40.293 46.5364 27.6887 44.2913 42.5364 27.5717 
44.2916 30.5364 27.5814 44.293 -30.4636 27.6305 44.2933 -42.4636 27.6402 
40.2952 -46.4636 27.7637 28.3007 -46.4636 28.1245 -44.6663 -46.4636 30.3196 
-32.6717 -46.4636 29.9587 28.0128 46.5287 18.5539 27.3813 46.5118 -2.43662 
39.3759 46.5118 -2.79745 40.0073 46.5287 18.1931 -32.9596 46.5287 20.3881 
-44.9542 46.5287 20.7489 -45.5857 46.5118 -0.24156 -33.5911 46.5118 -0.60239 
44.0056 42.5287 18.076 -48.9523 42.5287 20.8724 43.3742 42.5118 -2.9145 
43.3745 30.5118 -2.90483 44.0059 30.5287 18.0857 -48.952 30.5287 20.8821 
-49.5835 30.5118 -0.10839 -49.5838 42.5118 -0.11806 44.0074 -30.4712 18.1348 
-48.9506 -30.4712 20.9312 43.3759 -30.4882 -2.85569 43.3762 -42.4882 -2.84602 
44.0077 -42.4712 18.1445 -48.9502 -42.4712 20.9409 -49.5817 -42.4882 -0.04957 
-49.582 -30.4882 -0.05924 40.0096 -46.4712 18.268 -44.952 -46.4712 20.8239 
39.3781 -46.4882 -2.72252 27.3836 -46.4882 -2.36169 28.015 -46.4712 18.6288 
-32.9574 -46.4712 20.463 -33.5888 -46.4882 -0.52746 -45.5834 -46.4882 -0.16663 
-32.9579 -26.4712 20.4469 -28.9596 -30.4712 20.3299 -28.9593 -42.4712 20.3395 
24.0167 -42.4712 18.7459 24.0164 -30.4712 18.7362 28.0145 -26.4712 18.6127 
40.0091 -26.4712 18.2519 40.0078 26.5287 18.2092 28.0132 26.5287 18.57 
24.015 30.5287 18.687 24.0147 42.5287 18.6774 -28.9614 42.5287 20.271 
-28.9611 30.5287 20.2807 -32.9592 26.5287 20.4042 -44.9537 26.5287 20.7651 
-44.9524 -26.4712 20.8078 51.1376 30.4788 -44.1569 51.1372 46.4788 -44.1698 
42.141 55.4788 -43.9064 26.1483 55.4788 -43.4253 26.1485 46.4788 -43.418 
22.1504 42.4788 -43.2946 22.1504 41.6788 -43.2939 -4.33762 41.6788 -42.4971 
-4.33737 31.2788 -42.4887 22.1506 31.2788 -43.2855 22.1507 30.4788 -43.2849 
26.149 26.4788 -43.4019 26.9486 26.4788 -43.426 26.9492 -0.02122 -43.4046 
37.3445 -0.02122 -43.7174 37.3439 26.4788 -43.7387 42.1416 30.4788 -43.8863 
38.1435 26.4788 -43.7628 38.6843 46.4933 -25.787 26.6897 46.4933 -25.4262 
26.6895 55.4933 -25.4335 42.6823 55.4933 -25.9146 51.6784 46.4933 -26.1779 
51.6788 30.4933 -26.165 42.6826 42.4933 -25.9041 42.6829 30.4933 -25.8944 
27.3813 46.5118 -2.43662 23.3832 42.5118 -2.31312 23.3835 30.5118 -2.30345 
27.3818 26.5118 -2.4205 39.3764 26.5118 -2.78133 43.3745 30.5118 -2.90483 
39.3759 46.5118 -2.79745 43.3742 42.5118 -2.9145 22.5115 31.2884 -31.291 
22.5112 41.6884 -31.2993 -3.97654 31.2884 -30.4941 -3.97679 41.6884 -30.5025 
37.7047 26.4884 -31.7442 27.3094 26.4884 -31.4314 37.7054 -0.01155 -31.7228 
27.3101 -0.01155 -31.4101 23.3832 42.5118 -2.31312 23.3835 30.5118 -2.30345 
27.3818 26.5118 -2.4205 39.3764 26.5118 -2.78133 -46.0184 26.4788 -41.2309 
-46.0177 -0.02122 -41.2096 -35.6225 -0.02122 -41.5223 -35.6231 26.4788 -41.5437 
-34.8235 26.4788 -41.5677 -30.8254 30.4788 -41.6912 -30.8254 31.2788 -41.6919 
-4.33737 31.2788 -42.4887 -4.33762 41.6788 -42.4971 -30.8256 41.6788 -41.7002 
-30.8256 42.4788 -41.7009 -34.8239 46.4788 -41.5838 -34.8242 55.4788 -41.5911 
-50.8169 55.4788 -41.11 -59.8126 46.4788 -40.8321 -59.8122 30.4788 -40.8192 
-50.8163 30.4788 -41.0898 -46.818 26.4788 -41.2069 -59.271 30.4933 -22.8274 
-59.2714 46.4933 -22.8402 -50.2757 55.4933 -23.1181 -34.2829 55.4933 -23.5992 
-34.2827 46.4933 -23.592 -46.2773 46.4933 -23.2311 -50.2754 42.4933 -23.1076 
-50.2751 30.4933 -23.098 -33.5911 46.5118 -0.60239 -29.5928 42.5118 -0.71945 
-29.5925 30.5118 -0.70978 -33.5906 26.5118 -0.58628 -45.5852 26.5118 -0.22545 
-49.5835 30.5118 -0.10839 -45.5857 46.5118 -0.24156 -49.5838 42.5118 -0.11806 
-30.4646 31.2884 -29.6973 -30.4648 41.6884 -29.7057 -3.97679 41.6884 -30.5025 
-3.97654 31.2884 -30.4941 -45.6576 26.4884 -29.2364 -35.2623 26.4884 -29.5491 
-35.2616 -0.01155 -29.5277 -45.6569 -0.01155 -29.215 -29.5928 42.5118 -0.71945 
-29.5925 30.5118 -0.70978 -33.5906 26.5118 -0.58628 -45.5852 26.5118 -0.22545 
37.3452 -26.5212 -43.696 37.3445 -0.02122 -43.7174 26.9492 -0.02122 -43.4046 
26.9499 -26.5212 -43.3833 26.1502 -26.5212 -43.3592 22.1521 -30.5212 -43.2357 
22.1522 -31.3212 -43.2351 -4.33585 -31.3212 -42.4383 -4.3356 -41.7212 -42.4299 
22.1524 -41.7212 -43.2267 22.1524 -42.5212 -43.2261 26.1507 -46.5212 -43.3431 
26.1509 -55.5212 -43.3359 42.1437 -55.5212 -43.817 51.1394 -46.5212 -44.0948 
51.139 -30.5212 -44.1077 42.1431 -30.5212 -43.8371 38.1448 -26.5212 -43.7201 
51.6803 -30.5067 -26.1159 51.6807 -46.5067 -26.103 42.685 -55.5067 -25.8251 
26.6922 -55.5067 -25.344 26.692 -46.5067 -25.3513 38.6865 -46.5067 -25.7121 
42.6846 -42.5067 -25.8356 42.6843 -30.5067 -25.8453 27.3836 -46.4882 -2.36169 
23.3853 -42.4882 -2.24463 23.385 -30.4882 -2.2543 27.3831 -26.4882 -2.3778 
39.3777 -26.4882 -2.73863 43.3759 -30.4882 -2.85569 39.3781 -46.4882 -2.72252 
43.3762 -42.4882 -2.84602 22.513 -31.3115 -31.2405 22.5132 -41.7115 -31.2321 
-3.97477 -41.7115 -30.4353 -3.97502 -31.3115 -30.4437 37.706 -26.5115 -31.7014 
27.3107 -26.5115 -31.3887 27.3101 -0.01155 -31.4101 37.7054 -0.01155 -31.7228 
23.3853 -42.4882 -2.24463 23.385 -30.4882 -2.2543 27.3831 -26.4882 -2.3778 
39.3777 -26.4882 -2.73863 -45.5839 -26.4882 -0.18274 -33.5893 -26.4882 -0.54357 
-29.591 -30.4882 -0.66063 -29.5907 -42.4882 -0.65096 -34.8222 -26.5212 -41.525 
-46.8167 -26.5212 -41.1642 -46.0171 -26.5212 -41.1882 -45.6563 -26.5115 -29.1937 
-35.261 -26.5115 -29.5064 -35.6218 -26.5212 -41.501 -30.8236 -42.5212 -41.6324 
-30.8239 -30.5212 -41.6421 -30.8239 -31.3212 -41.6414 -30.463 -31.3115 -29.6469 
-30.4628 -41.7115 -29.6385 -30.8236 -41.7212 -41.633 -50.2733 -42.5067 -23.0392 
-50.2736 -30.5067 -23.0488 -46.275 -46.5067 -23.1562 -34.2804 -46.5067 -23.517 
-45.6569 -0.01155 -29.215 -35.2616 -0.01155 -29.5277 -35.6225 -0.02122 -41.5223 
-46.0177 -0.02122 -41.2096 -3.97502 -31.3115 -30.4437 -3.97477 -41.7115 -30.4353 
-4.33585 -31.3212 -42.4383 -4.3356 -41.7212 -42.4299 -34.2802 -55.5067 -23.5098 
-50.273 -55.5067 -23.0287 -59.2691 -46.5067 -22.7653 -59.2695 -30.5067 -22.7782 
-59.8108 -30.5212 -40.7701 -50.8148 -30.5212 -41.0407 -59.8104 -46.5212 -40.7572 
-34.8217 -46.5212 -41.5089 -34.8215 -55.5212 -41.5017 -50.8142 -55.5212 -41.0205 
-46.1963 -46.1591 30.3654 -47.4935 -45.292 30.4037 -48.3602 -43.9943 30.4287 
-48.6647 -39.4636 30.4342 -48.6647 -36.4636 30.4318 -48.6648 -33.4636 30.4294 
-48.665 -27.4136 30.4245 -48.665 -24.3636 30.422 -48.6651 -21.3136 30.4196 
-48.6652 -18.2636 30.4171 -48.6653 -15.2136 30.4147 -48.6653 -12.1636 30.4122 
-48.6654 -9.11358 30.4097 -48.6655 -6.06358 30.4073 -48.6656 -3.01359 30.4048 
-48.6656 0.03641 30.4024 -48.6657 3.08641 30.3999 -48.6658 6.13641 30.3975 
-48.6659 9.18641 30.395 -48.6659 12.2364 30.3925 -48.666 15.2864 30.3901 
-48.6661 18.3364 30.3876 -48.6661 21.3864 30.3852 -48.6662 24.4364 30.3827 
-48.6663 27.4864 30.3803 -48.6664 33.5364 30.3754 -48.6665 36.5364 30.373 
-48.6666 39.5364 30.3706 -48.3624 44.0671 30.3577 -47.4957 45.3648 30.3306 
-46.1986 46.2319 30.2909 -41.6699 46.5364 30.1544 -38.6713 46.5364 30.0642 
-35.6726 46.5364 29.974 -29.6254 46.5364 29.7921 -26.5767 46.5364 29.7004 
-23.5281 46.5364 29.6087 -20.4795 46.5364 29.517 -17.4309 46.5364 29.4252 
-14.3823 46.5364 29.3335 -11.3336 46.5364 29.2418 -8.28503 46.5364 29.1501 
-5.23641 46.5364 29.0584 -2.18779 46.5364 28.9667 0.86083 46.5364 28.875 
3.90945 46.5364 28.7833 6.95808 46.5364 28.6916 10.0067 46.5364 28.5998 
13.0553 46.5364 28.5081 16.1039 46.5364 28.4164 19.1526 46.5364 28.3247 
22.2012 46.5364 28.233 25.2498 46.5364 28.1413 31.2971 46.5364 27.9594 
34.2957 46.5364 27.8692 37.2943 46.5364 27.779 41.823 46.2319 27.643 
43.1202 45.3648 27.6047 43.9869 44.0671 27.5796 44.2914 39.5364 27.5741 
44.2914 36.5364 27.5765 44.2915 33.5364 27.579 44.2916 27.4864 27.5838 
44.2917 24.4364 27.5863 44.2918 21.3864 27.5887 44.2919 18.3364 27.5912 
44.2919 15.2864 27.5937 44.292 12.2364 27.5961 44.2921 9.18641 27.5986 
44.2922 6.13641 27.601 44.2922 3.08641 27.6035 44.2923 0.03641 27.6059 
44.2924 -3.01359 27.6084 44.2925 -6.06358 27.6108 44.2925 -9.11358 27.6133 
44.2926 -12.1636 27.6158 44.2927 -15.2136 27.6182 44.2928 -18.2636 27.6207 
44.2928 -21.3136 27.6231 44.2929 -24.3636 27.6256 44.293 -27.4136 27.6281 
44.2931 -33.4636 27.6329 44.2932 -36.4636 27.6353 44.2933 -39.4636 27.6378 
43.989 -43.9943 27.6506 43.1224 -45.292 27.6777 41.8253 -46.1591 27.7174 
37.2966 -46.4636 27.8539 34.298 -46.4636 27.9441 31.2993 -46.4636 28.0343 
25.2521 -46.4636 28.2162 22.2034 -46.4636 28.3079 19.1548 -46.4636 28.3997 
16.1062 -46.4636 28.4914 13.0576 -46.4636 28.5831 10.009 -46.4636 28.6748 
6.96033 -46.4636 28.7665 3.91171 -46.4636 28.8582 0.86309 -46.4636 28.9499 
-2.18553 -46.4636 29.0416 -5.23415 -46.4636 29.1333 -8.28277 -46.4636 29.225 
-11.3314 -46.4636 29.3168 -14.38 -46.4636 29.4085 -17.4286 -46.4636 29.5002 
-20.4772 -46.4636 29.5919 -23.5259 -46.4636 29.6836 -26.5745 -46.4636 29.7753 
-29.6231 -46.4636 29.867 -35.6704 -46.4636 30.049 -38.669 -46.4636 30.1392 
-41.6677 -46.4636 30.2294 28.108 46.5313 21.7191 28.2032 46.5338 24.8843 
27.4715 46.5142 0.56203 27.5617 46.5166 3.56067 27.6519 46.5191 6.55931 
27.7421 46.5215 9.55795 27.8323 46.5239 12.5566 27.9226 46.5263 15.5552 
30.3799 46.5118 -2.52682 33.3786 46.5118 -2.61703 36.3772 46.5118 -2.70724 
39.4661 46.5142 0.20119 39.5563 46.5166 3.19984 39.6465 46.5191 6.19848 
39.7367 46.5215 9.19712 39.8269 46.5239 12.1958 39.9171 46.5263 15.1944 
40.1026 46.5313 21.3583 40.1978 46.5338 24.5235 -32.8644 46.5313 23.5533 
-32.7692 46.5338 26.7186 24.9641 46.5287 18.6456 21.9155 46.5287 18.7373 
18.8669 46.5287 18.829 15.8183 46.5287 18.9207 12.7697 46.5287 19.0124 
9.72103 46.5287 19.1042 6.67242 46.5287 19.1959 3.6238 46.5287 19.2876 
0.57518 46.5287 19.3793 -2.47344 46.5287 19.471 -5.52206 46.5287 19.5627 
-8.57069 46.5287 19.6544 -11.6193 46.5287 19.7461 -14.6679 46.5287 19.8378 
[...]
CELL_DATA 12638
SCALARS cell_scalars float
LOOKUP_TABLE default
-8274.7 -8094.4 -8503 -8700.1 -7896.9 -8436 -8610.6 -8359.4 -8838.3 
-8567.2 -8995.4 -8708.1 -9094.6 -8851.6 -9170 -8745.8 -8974.3 -8452.9 
-8716.4 -8137.2 -8435.6 -7785.9 -8127.4 -7524.3 -7892.1 -7257.3 -7758.1 
-7096.4 -7631.3 -7475.1 -8050.2 -7929.4 -8429 -8272.3 -8722.4 -8514.4 
-9016.3 -8729.3 -9110.3 -8864.8 -9184 -8758.3 -8970.4 -8459.8 -8728.6 
-8165.9 -8464.9 -7862.4 -8220.9 -7566.4 -7906.7 -7317.1 -7855.1 -7020.5 
-7538.1 -7448.5 -7915.7 -7875.5 -8419.4 -8186.9 -8635.9 -8425 -8953.8 
-8794.3 -9335.9 -9341.2 -9064.9 -9405.4 -9392.7 -8978.7 -9222.6 -8850.4 
-9207.6 -8872.4 -9215.6 -8851.9 -9210.4 -8853.3 -9188.4 -8832.8 -9188.6 
-8877.7 -9189.6 -8837.4 -9200.4 -8860.6 -9195.4 -8860.6 -9227.3 -8875.3 
-9229.6 -8871.1 -9210.6 -8864.4 -9214 -8886.3 -9212.1 -8890 -9208.1 
-8881.3 -9237.2 -8895.3 -9232.2 -8896.5 -9221.2 -8894.1 -9242.1 -8915.7 
-9245.5 -8924.9 -9228.6 -8918.5 -9230.1 -8931.1 -9221.6 -8912.5 -9213.5 
-8898.8 -9206.9 -8917 -9206.3 -8913.4 -9190.3 -8920.1 -9243.3 -9002.7 
-9364.6 -9399.3 -9131.5 -9404.9 -9404.6 -8969.5 -9171.3 -8655 -8870.1 
-8360.1 -8587.7 -8096.9 -8282.4 -7678.9 -7965.7 -7293.4 -7617 -7205.7 
-7959.6 -7417.6 -7996.8 -7722.3 -8232.5 -7959.4 -8518.2 -8250.9 -8777.1 
-8548 -9014.4 -8822.3 -9124 -8798.1 -9048.9 -8658.9 -8924.7 -8436.5 
-8635 -8147 -8344.8 -7775.7 -7947.4 -7339.5 -7471.8 -6938.3 -7857.2 
-7349.1 -7883 -7600.2 -8176.2 -7922.1 -8480.5 -8202.8 -8746.3 -8490.6 
-8963.4 -8778.6 -9187.5 -8787.4 -9020.5 -8663.2 -9006.8 -8613.5 -8920.3 
-8815.5 -8364.3 -8501.3 -8628 -8113.4 -8638.4 -8011.5 -8512 -8167.5 
-8522.2 -8099.7 -8406.6 -8035.8 -8436.2 -8073.6 -8431.5 -8006.5 -8461.1 
-8000.9 -8376.3 -7996.8 -8309.9 -8014.8 -8284.4 -8060.7 -8276.8 -7955.6 
-8267.9 -7958 -8250.3 -7949.7 -8196.3 -7929.2 -8222.5 -7935.8 -8223.7 
-7912.5 -8166 -7872.7 -8242.1 -7838 -8210.3 -7849.6 -8207.9 -7864.4 
-8231 -7880.7 -8313 -7904.2 -8295.9 -7869.1 -8258.1 -7832.1 -8280.2 
-7868.6 -8368.9 -7932.7 -8385.1 -7754.9 -7859.8 -8208.8 -8172.2 -8290.3 
-8130.3 -8185.7 -8564.6 -8577.7 -8461.8 -8488.4 -8412.7 -8603.8 -8723.7 
-8688.4 -8368.7 -8430.9 -8382.4 -8248.6 -8492.7 -8397.6 -8487.1 -8508.6 
-8221.2 -8327.4 -7922.1 -8016.5 -7628.6 -7708.6 -7339.9 -7417.3 -7130.3 
-7179.8 -7001 -7024.5 -7081.5 -6917.5 -7600.9 -7351.4 -7908.4 -7721.8 
-8185.6 -8044.7 -8422.4 -8224.8 -8549.3 -8459.8 -8608.4 -8580.1 -8295.1 
-8424.2 -7971.1 -8112.2 -7663.6 -7781.6 -7404.8 -7488 -7130.8 -7232.9 
-7004.8 -7022.7 -7121.7 -6993.2 -7570.3 -7333.4 -7840 -7764.2 -8130.1 
-8014.3 -7946.2 -8085.8 -7768.8 -8086.4 -8154.6 -8131.4 -8146.2 -8126 
-8127.4 -8172.2 -8208.2 -8098.7 -8200.3 -8100.3 -8167.9 -8065.4 -8151.7 
-8066.9 -8125.3 -8078.3 -8111 -8058.1 -8113 -8025.6 -8104.6 -8078.2 
-8113.1 -8048.9 -8109.9 -8045.4 -8091.1 -8024.6 -8098.4 -8018.7 -8120.6 
-8039.6 -8095.4 -8042.1 -8135.4 -8008.8 -8092.4 -8021.6 -8101.3 -8026 
-8105.2 -8024.6 -8054.3 -8003.8 -8099.7 -8002.3 -8059.9 -7936.7 -8011.3 
-8499.6 -8379.7 -8465.6 -8373 -8476 -8377.8 -8408.8 -8346.6 -8502.6 
-8368.6 -8480.7 -8386.8 -8534.1 -8455.2 -8508.2 -8429.9 -8534 -8475.4 
-8519.6 -8448.1 -8524.8 -8455.5 -8536.3 -8484.5 -8559.3 -8464.1 -8558.1 
-8470.7 -8545.7 -8477.6 -8548.9 -8491.7 -8549.7 -8506.7 -8552.5 -8484.4 
-8580.5 -8479 -8561.9 -8459.8 -8530.6 -8451.3 -8527.6 -8426.1 -8503 
-8410.8 -8543 -8428.2 -8508.6 -8437.2 -8599 -8433.9 -8255.6 -8282.6 
-7923.7 -8017.7 -7599 -7694.4 -7225.7 -7373.7 -6954 -6966.3 -7072.2 
-7036.8 -7330.6 -7192.3 -7607.6 -7444.2 -7896.3 -7715.1 -8204.7 -8033.4 
-8536.8 -8352.6 -8605.6 -8635.7 -8439.9 -8496.2 -8257.2 -8387.6 -8012.3 
-8164.5 -7699.6 -7873.4 -7266.1 -7530 -7010.4 -7104.9 -7068.6 -6943 
-7289.5 -7163 -7546.9 -7380.1 -7857.2 -7704.9 -8159 -7978 -8428.8 
-8266 -8582.2 -8548.7 -8442.5 -8469.1 -8243.3 -8300.4 -8253.5 -8246.2 
-8525.8 -8396.1 -8123.6 -8208.9 -7850.2 -8200 -8245.8 -8423 -8306.6 
-8253.4 -8195.1 -8010.8 -8104.4 -8503.8 -8466.8 -7775.1 -7890.4 -8007 
-7930.4 -8249.5 -8389.6 -7403.3 -7641.7 -7962.5 -8102.3 -7635.5 -7776.8 
-7332.7 -7531.9 -7135 -7255.6 -7038.5 -7076.3 -6952.5 -6947.9 -7377.9 
-7185.2 -7736.5 -7544.4 -8034.7 -7894.8 -8249.5 -8162.2 -8437.2 -8344.9 
-8560.6 -8515.2 -8395.7 -8494.7 -8060.4 -8225.7 -7734 -7880.3 -7419.2 
-7556.5 -7137.5 -7285.1 -6898.7 -7013.9 -6862.5 -6891.9 -7327.1 -7007.1 
-7638.7 -7494.8 -7033.4 -7243.6 -7030.3 -6986.2 -7167.3 -7050.2 -7409.1 
-7233.5 -7703.9 -7518.9 -7993.3 -7825.3 -8339.2 -8139.8 -8582.8 -8475.8 
-8439.2 -8531.3 -8289.6 -8353.7 -8045.5 -8158.8 -7820.9 -7912.9 -7413.7 
-7608.4 -6993 -7244.8 -6942 -6794.6 -7139.8 -7005.2 -7325.5 -7190.9 
-7609.9 -7446.7 -7907.3 -7731.7 -8223.6 -8056.5 -8504.8 -8372.1 -8461.5 
-8502.2 -7948 -7749.7 -8297.8 -8388.3 -8224.3 -8256.4 -8206.9 -8245.8 
-8238.2 -8276.5 -8240.1 -8293.9 -8318.5 -8317.9 -8298.6 -8400.9 -8293.9 
-8391.3 -8269.4 -8325.7 -8277.5 -8360.9 -8290 -8360.8 -8278.2 -8342.8 
-8277.5 -8358.1 -8268.2 -8366.3 -8286.2 -8331.2 -8280.7 -8341.9 -8276.9 
-8336.6 -8281.1 -8333.3 -8278.8 -8307 -8254.9 -8338.5 -8265.5 -8280.8 
-8223.7 -8297.3 -8131.6 -8234.8 -8093.1 -8145.4 -8153.4 -8175.2 -8228 
-8166.2 -8204.3 -8152.8 -8244.2 -8194.6 -8300.3 -8201.2 -8222.2 -8225.2 
-8294 -8162.1 -8290.1 -8180.9 -8291.3 -8215.5 -8311.7 -8231.1 -8272.7 
-8246.9 -8322.4 -8220.9 -8289.3 -8214.7 -8292.6 -8222.2 -8319.9 -8236.1 
-8303.9 -8209 -8297.5 -8243.1 -8319.1 -8237.8 -8321.7 -8253 -8325 
-8272.2 -8323.3 -8279 -8375.1 -8298.5 -8347 -8314.8 -8273.9 -8223.3 
-8284.9 -8268.2 -8307.5 -8233.9 -8043.8 -8334.8 -7998.4 -7990.3 -8079.8 
-8239 -8175.8 -8285.6 -8326 -8163 -8093.2 -8145.3 -7921.3 -7980.5 
-8060 -7961.7 -7679.4 -7690.3 -8435.9 -8393.1 -8331.1 -8409.1 -8390.8 
-8482 -8111.8 -8246.1 -7312.5 -7437.2 -8338.1 -8397.9 -8064.8 -7947.9 
-7833.5 -7976.6 -6996.2 -7047.6 -8144.1 -8112.6 -7524.2 -7704.9 -7299.1 
-7405.5 -7012.3 -7165 -6857.3 -6896.3 -7279 -7017.1 -7659.3 -7444.5 
-7959.1 -7804.1 -8194 -8089 -8394.8 -8290.1 -8560.1 -8452.3 -8501.9 
-8589.7 -8195 -8365.5 -7857.9 -8039.2 -7548.6 -7727.2 -7289.7 -7392.3 
-7118.8 -7228.7 -6993.7 -7071.8 -7230.2 -6911.8 -7550 -7377.9 -7827.2 
-7585.3 -7014.9 -6957.9 -7167.4 -7079.6 -7446.9 -7312.9 -7771.2 -7611.2 
-8109.1 -7920.4 -8417.1 -8260.4 -8573.9 -8552.6 -8424.4 -8525.8 -8235 
-8355.1 -8013.2 -8190.8 -7717.9 -7923.6 -7404.9 -7561.5 -6861.6 -7163.7 
-6928.5 -6859.8 -7129.4 -7038.8 -7444.3 -7276.4 -7767 -7624.7 -8022.9 
-7891.1 -8343 -8216.5 -8455.7 -8429.5 -8339.5 -8407.8 -8393.1 -8383.7 
-8352.6 -8451 -8440.7 -8430.8 -8473.4 -8459.3 -8475.2 -8468 -8458.1 
-8508.9 -8440.9 -8510.7 -8431.9 -8472.8 -8440.8 -8490.6 -8425.5 -8455 
-8415.3 -8460.9 -8419 -8424.4 -8423.2 -8434.3 -8387.6 -8434.5 -8337.6 
-8363.9 -8343.2 -8377.2 -8322.3 -8360.5 -8295.7 -8340.1 -8242.4 -8305.9 
-8307.4 -8357.3 -8251 -8341.9 -8046.2 -7979.1 -8081.2 -7977.5 -8121.3 
-8032.7 -8035.4 -8041.2 -8031 -8020.1 -8080 -8004.6 -8095.3 -7961 
-8094.5 -8000.6 -8122 -8043.2 -8095.3 -8029.5 -8114.2 -8079.9 -8114.8 
-8079.7 -8132.1 -8093.2 -8165.2 -8097.8 -8195.5 -8094.3 -8225 -8150.8 
-8246.3 -8189.2 -8161.8 -8183.6 -8165 -8072.3 -8198.6 -8151.3 -8201.3 
-8109.6 -8169.9 -8054.5 -8116.7 -8175.9 -8263.3 -8192.1 -8105.1 -8274.7 
-8262.7 -8283.6 -7981.5 -7924.5 -8420.4 -8369.8 -7970.3 -7928.6 -7737.9 
-7859.1 -7864.8 -8446.7 -8441.9 -8449.9 -8218.6 -8369.1 -7920.6 -8059.4 
-7662.8 -7803.2 -7401.6 -7538.2 -6964.9 -7331.2 -7044.2 -6855.9 -8442.5 
-8469.5 -7975.3 -7953.6 -7668.3 -7781.8 -8428 -8440.7 -7986.5 -7942.2 
-8186.7 -8317 -7183.8 -7572.4 -8472.3 -8457.3 -7421 -7544.5 -7111.8 
-7053.4 -7944 -7942.8 -7932.7 -7905.6 -7921.7 -7863.5 -7953.3 -7841.1 
-7977.9 -7835 -8029.7 -7919.2 -7989.1 -7928.6 -8002.8 -7920.4 -7998.9 
-7952.1 -7988.8 -7896.1 -7958.5 -7912.6 -7926.1 -7892.2 -7908.5 -7894.3 
-7933.5 -7914.2 -7939.5 -7816.3 -8488.6 -8526.6 -8512 -8551.8 -8523.1 
-8556.7 -8537.4 -8571 -8532.3 -8562.9 -8484.1 -8567.4 -8480.5 -8530.9 
-8473 -8518 -8473.8 -8514.1 -8470.8 -8507.4 -8488.7 -8494.4 -8520.4 
-8502.7 -8533.3 -8565.7 -8552.4 -8572.2 -8515.2 -8588.5 -6952.6 -7114.8 
-6956.7 -6817.2 -7186.1 -6990.6 -7487.7 -7331.5 -7788.7 -7628.7 -8117 
-7940.9 -8411.5 -8272.9 -8523.5 -8560 -8375.4 -8458 -8193.6 -8291 
-7963.4 -8059.5 -7652.5 -7763.6 -7237.9 -7445.5 -6929.7 -6998.9 -6918.4 
-6922.5 -7139.2 -7032.4 -7878.4 -8042.4 -7576 -7730 -7364.2 -7457.4 
-7168.1 -7257.1 -6989.2 -7077.4 -7069.9 -7132 -7568.7 -7349.2 -7871.4 
-7730.3 -8189.6 -7997.2 -8360 -8247.5 -8509.3 -8412.6 -8556.9 -8567.5 
-8261.4 -8424 -7956.3 -8133.7 -7640.1 -7794.6 -7342.5 -7500.4 -7916.2 
-7885.6 -8496.6 -8530 -7823.8 -7785.6 -8540.6 -8519.6 -7898.4 -7852.9 
-8508.5 -8553.9 -7883.8 -7844.4 -8483.6 -8520.1 -7302.7 -7215.7 -8518 
-7793.9 -7523.8 -7660.5 -8360 -8488.1 -8457.2 -8447.6 -8357.8 -8503.2 
-7692.7 -7781.3 -7570.9 -7719.5 -8055.2 -8216.9 -7787.8 -7913.8 -7612.2 
-7166.5 -7402.7 -7072.2 -7204.7 -7076.7 -6974.7 -8437.2 -8367.7 -7672.4 
-7571.4 -8447.5 -8328.9 -8397.8 -8355.6 -8480.2 -8349.5 -8498.4 -8396.3 
-8499.9 -8374.4 -8488.1 -8415.4 -8448.7 -8404.7 -8477.6 -8386.3 -8507 
-8418.2 -8485.5 -8405.9 -8508.5 -8420.2 -8523 -8416.7 -8567.5 -8464.5 
-8518.2 -8468.8 -8531.4 -8486.4 -8574.7 -8526.4 -8578.8 -8535 -8523.3 
-8481 -7601.8 -7548.8 -7507.7 -7561 -7699.3 -7465.6 -7629.7 -7574.7 
-7723.2 -7510.1 -7626.3 -7598.9 -7669.3 -7581.2 -7710.4 -7509 -7608.3 
-7530.6 -7666.4 -7476.7 -7574.5 -7441.8 -7573.1 -7470.3 -7658.2 -7548.3 
-7783.2 -7659.7 -7788 -7714.2 -7817.2 -7736.5 -7780.8 -7709.7 -7700.1 
-7703.8 -7254.8 -7411.1 -7059.7 -7129.9 -7034.6 -7077.7 -7241.5 -7162.9 
-7565.6 -7426.6 -7877.6 -7711.3 -8202.4 -8022.2 -8536.5 -8370.8 -8541.9 
-8596.4 -8384.7 -8466.3 -8228.1 -8298.3 -7945.4 -8092.4 -7637.5 -7790.1 
-7282.5 -7506.9 -7096.7 -7140.7 -7080.1 -7044.2 -8059.8 -8245.8 -7789.5 
-7940.4 -7464.3 -7632.9 -7149.4 -7289 -6947.6 -7002.7 -6850.7 -6837.7 
-7272.7 -7083.2 -7601.3 -7429.9 -7958.9 -7797.5 -8122.9 -8043.1 -8347.8 
-8282.8 -8522.6 -8463.1 -8481 -8521.6 -8153.5 -8300.1 -7841.6 -7978.5 
-7521.2 -7664 -7319.7 -8214.3 -7624.5 -7293.2 -7531.8 -8438.1 -8448.8 
-8279.9 -7295.9 -7091.8 -7410.8 -7175 -7286.3 -7556.3 -7380.9 -8140.9 
-8095.5 -7927.1 -7286.2 -7179.7 -7130.1 -6997.3 -6987.3 -8168.8 -8073.8 
-8138.6 -8045.3 -8179.1 -8074.3 -8151.5 -8086.6 -8204.2 -8086.5 -8195.1 
-8090.2 -8199.9 -8100.1 -8248.2 -8143.3 -8241.6 -8183.2 -8279.1 -8180 
-8287.5 -8221.9 -8312.2 -8215.6 -8294.5 -8204.5 -8322.2 -8209.3 -8364.4 
-8232.8 -8359.4 -8292.4 -8302.9 -8202.1 -7350.9 -7168.9 -7211.7 -7190.4 
-7197.8 -7152.3 -7182.3 -7131.6 -7238.3 -7104 -7310.6 -7123.6 -7280.5 
-7212.3 -7369.5 -7228.3 -7456.4 -7330.6 -7476.6 -7404.1 -7445.2 -7388.5 
-7506.1 -7410.4 -7451.2 -7359.5 -7379.3 -7249.8 -7340.6 -7238.9 -7389.6 
-7367.6 -7442.5 -7376.8 -6942.9 -7127.3 -7033.2 -6846.8 -7242.4 -7113.3 
-7489.8 -7336.3 -7779.3 -7616 -8073.1 -7937.6 -8386.4 -8241.9 -8572 
-8541.2 -8435.1 -8501.9 -8296 -8377.3 -8045.1 -8162.9 -7809.2 -7922.9 
-7401.8 -7595.7 -6981.3 -7188.6 -6898.6 -6815.1 -7865.7 -7998.5 -8170.3 
-7570.9 -7711.8 -7333.4 -7444.5 -7119.7 -7230 -6889 -7056.7 -7098.4 
-7005.3 -7579.5 -7347.6 -7912.6 -7824.1 -8183.6 -8046.2 -8363.7 -8298.7 
-8515.6 -8446.8 -8566.8 -8600.3 -8248.4 -8416.1 -7954.3 -8081.8 -7636.3 
-7802.3 -8271.5 -8202.3 -7377.7 -7239.7 -7627.5 -7773 -7876.4 -7776.2 
-7907.4 -7989.3 -7745.2 -8023.7 -7925.8 -6896.6 -6981.2 -8088.3 -7966.8 
-7171.6 -7089.7 -7346.4 -7240.4 -7484.4 -8031.7 -8005.9 -7889.2 -7785.4 
-8065.6 -7943.7 -8009 -7958.8 -7984.7 -7902.8 -8008.6 -7901.1 -7974.6 
-7876.3 -8003.6 -7886.8 -7981.8 -7869.2 -7970.4 -7906.5 -7973.2 -7902.3 
-7056.7 -7181.5 -7351.5 -7234.8 -7963 -7892.9 -7935.5 -7860.5 -7886.9 
-7830.3 -6956.8 -7113.3 -7133.6 -6920.7 -7283.8 -7026.8 -7241.7 -7198.1 
-7246.4 -7234.8 -7044.3 -7065.9 -7017.7 -6943.4 -7176 -6982.9 -7118.2 
-7038.9 -7121.2 -7075.2 -7014.9 -6906.5 -7054.4 -6843.6 -7054.9 -6800.8 
-6942.7 -6850.9 -6988 -6876.1 -6939.4 -6904.2 -7055.7 -6938.6 -7000.4 
-6964.2 -7274 -7192 -7573.5 -7392.1 -7888.2 -7733.2 -8206.2 -8047.1 
-8536.1 -8386.5 -8502.3 -8560 -8324.8 -8430.4 -8071.3 -8226.3 -7888.3 
-8028.5 -7492.2 -7723.4 -7109.1 -7336 -6913.2 -6908.8 -7448.4 -7642 
-7184.7 -7354.1 -6954.4 -7031.1 -6974.6 -6953.9 -7285.5 -7099 -7659.9 
-7463.4 -7955.7 -7742.6 -8221.9 -8132.3 -8386.4 -8264.8 -8552.9 -8480.4 
-8476 -8550.6 -8148.8 -8334.7 -7838.3 -7988.1 -7800.6 -7459 -6989.7 
-7734.3 -7620.5 -7808 -7709.2 -7844.4 -7666 -7510.5 -7619.6 -7073.7 
-7020.7 -6917.7 -6993.1 -6978.7 -7285.1 -7418.9 -7031.6 -7109.1 -6959.4 
-7188.2 -7071.6 -7214.7 -7143 -7543.2 -7359.6 -7696.3 -7365.7 -7458.9 
-7008.1 -6970.9 -7033.5 -6978.1 -6981.1 -6905.8 -6918.4 -6966.4 -6912.6 
-6947.8 -7018.7 -6976.1 -7078.9 -7002 -6975.9 -7052 -7068.6 -7048.4 
-6954.6 -7072.1 -7022.9 -7108.7 -7042.5 -7058.4 -6925.8 -7052.3 -7023.9 
-7016.1 -7457.7 -7371.3 -7721 -7610 -8067.7 -7896 -8391.7 -8227 
-8611.8 -8533.7 -8485.7 -8566 -8299.3 -8364.7 -8133.6 -8192.3 -7796.1 
-7925.3 -7439.6 -7603.8 -7017.7 -7210.3 -7022.5 -7150.6 -6995.4 -6971.8 
-7160.2 -6971.9 -7526.4 -7392.5 -7825 -7651 -8130.6 -8013.7 -8334.4 
-8228.4 -8486.2 -8417.8 -8542.9 -8553.2 -8296.3 -8443.5 -7934.8 -8122.6 
-7785.3 -7747.6 -7743.8 -7644.8 -7776 -7700.6 -7684.8 -7654.9 -7676.1 
-7570.5 -7647.7 -7609.7 -7670.5 -7562.4 -7666.2 -7588 -7659.1 -7553.7 
-7631.6 -7528.1 -7671 -7582.7 -7656.5 -7541 -6939.3 -7402.2 -7556.5 
-7563.2 -7471.5 -7129.9 -7064.3 -7368 -7268.6 -7070.1 -7001.2 -7162.1 
-7165.5 -7298.5 -7654.2 -7505.8 -7116.8 -7091.1 -6998.7 -7099.9 -6989.4 
-7112.4 -7906.5 -7743.3 -6877.2 -7001.6 -7058.2 -7075.7 -7480.9 -7459.6 
-7092.5 -7174 -7020 -7105.7 -7022.8 -7130.2 -7020.4 -7051.1 -7057.9 
-7080.4 -7038.4 -7137.2 -7147.6 -7127.5 -7131.4 -7193.4 -7159.7 -7183.5 
-7155.9 -7217.2 -6908.9 -6982.9 -7135.5 -7077.9 -7332.6 -7206.7 -7496.6 
-7618.7 -7482.4 -7579.8 -8211.4 -8048.4 -8552.9 -8369.5 -8515.3 -8562.3 
-8327.8 -8419 -8217 -8260.4 -7945 -8136.6 -7638.2 -7823.6 -7293.6 
-7471.4 -7255.9 -7037.5 -7737.5 -7551.8 -7959.6 -7894.4 -8212.7 -8066.8 
-8396.8 -8303.1 -8553.4 -8453 -8435.7 -8521.5 -8159.3 -8267.7 -7809.6 
-7623.2 -7400 -7513.2 -7506 -7407.4 -7485.2 -7408.2 -7542.3 -7451.9 
-7488.4 -7438.6 -7515 -7430.8 -7457.4 -7398.4 -7466.6 -7422.7 -7390.6 
-7379.2 -7383.1 -7326.1 -7396.2 -7314 -7303.8 -7310.6 -7185.7 -7308.3 
-7215.1 -7558.4 -7455.8 -7698.1 -7172.1 -7302.5 -7219.4 -7546.7 -7420.9 
-7867.9 -7674.7 -7999.6 -7257.1 -7240.4 -7084.3 -7090.8 -6948.7 -6985.2 
-6871.4 -7065.2 -6783.7 -7205.7 -7102.9 -7340 -7384.8 -7339.3 -7309.9 
-7279.1 -7177.8 -7232 -7153.1 -7213.8 -7118.3 -7199.3 -7100.1 -7185.9 
-7138.9 -7180.8 -7124.8 -7164.3 -7119.7 -7190.3 -7095.9 -7236.2 -7157.9 
-7144.3 -7140.7 -8060.3 -7863.7 -8324.1 -8210.7 -8569.6 -8478.6 -8436.2 
-8575.6 -8237.6 -8356 -7947.7 -8145.4 -7664.2 -7822.4 -7278.6 -7493.1 
-7044.2 -6914.3 -7475.6 -7254.7 -7842.2 -7578.3 -8207.1 -8057.1 -8369.2 
-8312.6 -8484.2 -8427.5 -8549.6 -8574.5 -8342.3 -8496.5 -7270.2 -7276.6 
-7237.8 -7308.8 -7306.8 -7312.6 -7314.1 -7375.1 -7312.7 -7405.1 -7350.8 
-7428.9 -7312.7 -7430.9 -7309.9 -7380 -7287.2 -7379.5 -7315.2 -7399.4 
-7302.2 -7381.1 -7418.7 -7522.7 -7826.5 -7666.8 -7435.2 -7340.4 -7375.3 
-7670.6 -7545.3 -7062.2 -7240 -7146.6 -7097.7 -7093.1 -6989.2 -7037.2 
-7980.2 -7855.2 -8182.7 -7088.9 -6970.5 -6983.9 -6979.5 -7023.8 -7050 
-7047.6 -7024.6 -7026.4 -7008.3 -7075.9 -6999.4 -7089.5 -7062.7 -7104.6 
-7041.9 -7100.3 -7008.4 -7047 -7026.1 -7002.5 -7027.4 -6976.9 -6931 
-8203.3 -8019.7 -7498.1 -7546.4 -7444.6 -7562.2 -7434.8 -7517.8 -7480.8 
-7541.7 -7493.8 -7574.7 -7504.5 -7556 -7524.3 -7582 -7582.9 -7610 
-7568.4 -7670.8 -7587.7 -7648.1 -8477.8 -8354.8 -8573.7 -8559.6 -8416 
-8467.4 -8215.4 -8332.4 -7937 -8094.7 -7698.1 -7844.4 -7276 -7142.5 
-6946.5 -7758.1 -7525.2 -7938.6 -7887.6 -8209.6 -8111.1 -8356.9 -8258.3 
-8577.9 -8445.4 -8451.4 -8580.9 -6903.6 -7104 -7736.3 -7524.5 -7651.8 
-7839.5 -6932.3 -6971.7 -6955.3 -6851.7 -7194 -7029.6 -7567.2 -7465.4 
-7852.8 -7774.6 -8017.6 -7872.9 -7731.1 -7843.7 -7767.4 -7835.4 -8067.2 
-7988.5 -7794.4 -7893.7 -6800.8 -6959.3 -7270.5 -6782.3 -7561.8 -7035.7 
-6893.3 -8148.1 -7951.1 -8308.1 -7860.7 -8006.8 -7801.5 -7929.7 -7820 
-7913.2 -7776.3 -7912.5 -7784.1 -7870.2 -7804.7 -7898.6 -8295.4 -8221.2 
-8503.2 -8432 -8567.4 -8559.9 -7004.3 -6968.8 -6695.5 -6835.2 -6911.4 
-6882.5 -6954.2 -7052.9 -6985.5 -6902.2 -6983.8 -6969 -8309.5 -8155.6 
-8534.2 -8438.6 -8422.5 -8514.7 -8275.3 -8343.1 -8062.6 -8145.7 -7821.8 
-7970.3 -7903.5 -8166.5 -8033 -8014.7 -6986.5 -6933.5 -7007.3 -8323.5 
-8173.7 -8477.6 -8092.5 -8217.3 -8004.3 -8113.8 -8049.4 -8122.3 -8030.4 
-8163 -7007.4 -7173.4 -7603.6 -7397.2 -7791.2 -7735.1 -7976.4 -7434.5 
-7242.7 -7612.9 -8466.6 -8360.1 -7986.8 -8104.2 -7108.4 -7161 -8008 
-8079.4 -6956.6 -7235.9 -7003.9 -7092.6 -7149.5 -7101.3 -7041.9 -7230.7 
-7120.4 -7151.4 -8546.1 -8553.5 -8383.4 -8479.7 -8144.1 -8275.1 -7924.9 
-8092.4 -8244.2 -8107.1 -8378.8 -8313.7 -8526.1 -8471.9 -7542.2 -7496.4 
-8285.7 -8378.1 -8560.7 -8500.1 -7203.8 -7297.3 -7219.9 -8513 -8400.8 
-8564.7 -7873.4 -7789.7 -8074.7 -7986.4 -8278.3 -8397.6 -8345.5 -7335.2 
-7545.8 -8419.8 -8497.9 -7414.6 -7561.5 -7328.9 -7574.5 -8278.2 -8194.6 
-8318.2 -8383.4 -7442.5 -7554.3 -7454.9 -7528.7 -8023.5 -8105 -8119.3 
-8077.7 -8243.7 -7587.1 -7807.1 -8460.7 -8350.9 -8321.8 -8459.4 -8455.6 
-8359.9 -8423.2 -7399.6 -7373.3 -7517.7 -7689 -7658.2 -8518.4 -8540.6 
-8551.2 -8563.9 -7948.6 -7811.1 -7835.2 -7744.5 -8043.7 -7933.3 -8151.9 
-8395.9 -8319.3 -8505.8 -8297 -8422.9 -7809.1 -7791 -7694.3 -7779.5 
-7733.5 -7801.5 -7739.4 -7808.8 -8559.1 -8599.8 -8352.8 -8492.2 -8230.7 
-8263.4 -8331.3 -8257.6 -8588.7 -8578 -7773.5 -8418.4 -8092.6 -8035.1 
-8211.6 -8578.6 -8578.2 -8508.4 -8417.3 -8583.3 -8551.8 -7987.2 -7897.2 
-8154.8 -8572.6 -8572.9 -8601 -7996.2 -8015.6 -7933.3 -8030.4 -8468.4 
-8524.8 -8342.4 -8371.3 -8008.1 -8524.3 -8115 -8208.2 -8208.1 -8294.4 
-8293.7 -8153.5 -8289.7 -8291.3 -8445.7 -8351.8 -8533 -8544 -8484.4 
-8509.6 -8353.8 -8337.7 -8360.8 -4937.7 -6304.6 -7328.6 -8095.2 -8672.6 
-8732.6 -8874.1 -9084 -9251.3 -9226.6 -9276.3 -9376.7 -9497 -9459 
-9481.4 -9528.1 -9617.5 -9595.8 -9596.8 -9617.8 -9693.6 -9678.5 -9679 
-9690.7 -9748.6 -9734.1 -9737.8 -9755.2 -9795.9 -9773.7 -9760.9 -9791.7 
-9778 -9759.1 -9773.4 -9767.7 -9589.1 -9545.2 -9540.2 -9481.4 -9431.4 
-9777 -9971.7 -9351.5 -9827.6 -10235 -9401 -9847.3 -10230 -9365.4 
-9843.5 -10175 -9388.1 -9855.2 -10155 -9392.9 -9860.5 -10093 -9434.6 
-9835.5 -10190 -9484.2 -9843.8 -10199 -9489.9 -9873.5 -10247 -9542 
-9867.1 -10332 -9656.2 -9863 -10358 -9562.2 -9878.4 -10301 -9524.5 
-9863.3 -10330 -9458.9 -9842.6 -10374 -9348.6 -9873.2 -10304 -9379.1 
-9878.5 -10231 -9352.5 -9850.1 -10202 -9361.7 -9853 -10208 -9365.7 
-9843.6 -10129 -9413.4 -9789.3 -9949.3 -9314.4 -9216.9 -9206.5 -9336.5 
-9486.8 -9422.5 -9422.9 -9501.9 -9584.2 -9546 -9546.8 -9599.4 -9647.8 
-9622.4 -9624.1 -9660.5 -9700.9 -9682.2 -9682.8 -9701.5 -9738.8 -9723 
-9724.1 -9734.2 -9777.2 -9764 -9756.8 -9768.9 -9812.3 -9774 -9783.4 
-9806.6 -9776.4 -9784.6 -9771.6 -9777.3 -9461.9 -9506.8 -9497.9 -9633.1 
-9657.7 -9916.9 -9909.2 -9725.3 -9871 -9857.1 -9710.2 -9858.8 -9848 
-9699.1 -9852.6 -9836.6 -9699.5 -9860 -9830.2 -9672.9 -9859.9 -9857.2 
-9575 -9827.6 -9871 -9654 -9763.7 -9738.5 28357 30780 29386 
23272 4889.3 5938.8 4672.8 1137.1 -8406.4 -8148.4 -8465.3 -9025.7 
-9541.6 -9488.5 -9499.2 -9558.7 -9846.4 -9834.2 -9834 -9834.7 -9896.7 
-9908.1 -9909.1 -9898.3 -9886.9 -9874.7 -9874.9 -9880.1 -9891.5 -9875.6 
-9876.1 -9885.3 -9874.1 -9866.7 -9868.3 -9882.5 -9570.5 -9563.7 -9566.1 
-9577.5 -9244.3 -9175.7 -9176.9 -9259.4 -9399.6 -9405 -9402.4 -9381.9 
-9394.1 -9465.3 -9456.3 -9360.8 -9442.2 -9401.3 -9386.7 -9439.9 -9597.2 
-9578.8 -9580 -9605 -9625.8 -9613.6 -9616.3 -9634.1 -9651 -9639.3 
-9642.6 -9672.1 -9675.6 -9660.6 -9662.7 -9695 -9703.8 -9687.3 -9686.9 
-9695 -9525.3 -9464.8 -9448.6 -9461.5 -9583.8 -9908.4 -10097 -9584.5 
-9942.5 -10312 -9597.9 -9962.5 -10326 -9602.2 -9971.6 -10332 -9603.7 