# vtk DataFile Version 4.2
vtk output
ASCII
DATASET UNSTRUCTURED_GRID
POINTS 8741 float
-46.6046 -42.4943 27.9041 -46.6046 -30.4943 27.9026 -46.6045 30.5057 27.895 
-46.6045 42.5057 27.8935 -42.6048 46.5057 27.9383 -30.6055 46.5057 28.074 
30.3906 46.5057 28.7639 42.3898 46.5057 28.8996 46.3895 42.5057 28.9453 
46.3895 30.5057 28.9468 46.3894 -30.4943 28.9544 46.3894 -42.4943 28.9559 
42.3897 -46.4943 28.9112 30.3904 -46.4943 28.7755 -42.6049 -46.4943 27.9499 
-30.6057 -46.4943 28.0856 30.498 46.5045 19.2645 30.7355 46.5019 -1.73418 
42.7347 46.5019 -1.59847 42.4972 46.5045 19.4002 -30.4981 46.5045 18.5746 
-42.4973 46.5045 18.4389 -42.2598 46.5019 -2.55979 -30.2606 46.5019 -2.42407 
46.497 42.5045 19.4459 -46.4971 42.5045 18.3941 46.7345 42.5019 -1.55273 
46.7345 30.5019 -1.55123 46.497 30.5045 19.4474 -46.4971 30.5045 18.3956 
-46.2596 30.5019 -2.60303 -46.2596 42.5019 -2.60453 46.4969 -30.4955 19.455 
-46.4972 -30.4955 18.4032 46.7344 -30.4981 -1.54363 46.7344 -42.4981 -1.54213 
46.4969 -42.4955 19.4565 -46.4972 -42.4955 18.4047 -46.2597 -42.4981 -2.59393 
-46.2597 -30.4981 -2.59543 42.4971 -46.4955 19.4118 -42.4975 -46.4955 18.4505 
42.7346 -46.4981 -1.58687 30.7354 -46.4981 -1.72259 30.4979 -46.4955 19.2761 
-30.4982 -46.4955 18.5862 -30.2607 -46.4981 -2.41248 -42.2599 -46.4981 -2.54819 
-30.4982 -26.4955 18.5837 -26.4984 -30.4955 18.6294 -26.4985 -42.4955 18.6309 
26.4981 -42.4955 19.2303 26.4981 -30.4955 19.2288 30.4979 -26.4955 19.2736 
42.4971 -26.4955 19.4093 42.4972 26.5045 19.4027 30.498 26.5045 19.267 
26.4982 30.5045 19.2212 26.4983 42.5045 19.2197 -26.4983 42.5045 18.6203 
-26.4984 30.5045 18.6218 -30.4981 26.5045 18.5771 -42.4973 26.5045 18.4414 
-42.4974 -26.4955 18.448 56.1976 30.4967 -42.4468 56.1976 46.4967 -42.4488 
47.1982 55.4967 -42.5517 31.1992 55.4967 -42.7327 31.1992 46.4967 -42.7315 
27.1995 42.4967 -42.7763 27.1994 41.6967 -42.7762 0.70115 41.6967 -43.0759 
0.70114 31.2967 -43.0746 27.1994 31.2967 -42.7749 27.1994 30.4967 -42.7748 
31.1992 26.4967 -42.7291 31.9991 26.4967 -42.72 31.9991 -0.00325 -42.7167 
42.3984 -0.00325 -42.5991 42.3985 26.4967 -42.6024 47.1982 30.4967 -42.5486 
43.1984 26.4967 -42.5933 42.9949 46.499 -24.597 30.9956 46.499 -24.7327 
30.9956 55.499 -24.7338 46.9946 55.499 -24.5529 55.994 46.499 -24.45 
55.994 30.499 -24.448 46.9946 42.499 -24.5513 46.9946 30.499 -24.5497 
30.7355 46.5019 -1.73418 26.7358 42.5019 -1.77892 26.7357 30.5019 -1.77743 
30.7355 26.5019 -1.73169 42.7347 26.5019 -1.59597 46.7345 30.5019 -1.55123 
42.7347 46.5019 -1.59847 46.7345 42.5019 -1.55273 27.0637 31.2982 -30.7757 
27.0637 41.6982 -30.777 0.56542 31.2982 -31.0754 0.56544 41.6982 -31.0767 
42.2627 26.4982 -30.6032 31.8634 26.4982 -30.7208 42.2627 -0.00176 -30.5998 
31.8634 -0.00176 -30.7175 26.7358 42.5019 -1.77892 26.7357 30.5019 -1.77743 
30.7355 26.5019 -1.73169 42.7347 26.5019 -1.59597 -40.9962 26.4967 -43.5456 
-40.9962 -0.00325 -43.5423 -30.5969 -0.00325 -43.4247 -30.5969 26.4967 -43.428 
-29.7969 26.4967 -43.4189 -25.7972 30.4967 -43.3742 -25.7972 31.2967 -43.3743 
0.70114 31.2967 -43.0746 0.70115 41.6967 -43.0759 -25.7971 41.6967 -43.3756 
-25.7971 42.4967 -43.3757 -29.7969 46.4967 -43.4214 -29.7969 55.4967 -43.4226 
-45.7958 55.4967 -43.6035 -54.7953 46.4967 -43.7042 -54.7953 30.4967 -43.7022 
-45.7959 30.4967 -43.6004 -41.7961 26.4967 -43.5547 -54.9989 30.499 -25.7033 
-54.9989 46.499 -25.7053 -45.9994 55.499 -25.6047 -30.0004 55.499 -25.4237 
-30.0005 46.499 -25.4226 -41.9997 46.499 -25.5583 -45.9994 42.499 -25.6031 
-45.9995 30.499 -25.6015 -30.2606 46.5019 -2.42407 -26.2608 42.5019 -2.37834 
-26.2609 30.5019 -2.37684 -30.2606 26.5019 -2.42158 -42.2598 26.5019 -2.5573 
-46.2596 30.5019 -2.60303 -42.2598 46.5019 -2.55979 -46.2596 42.5019 -2.60453 
-25.9329 31.2982 -31.3751 -25.9329 41.6982 -31.3764 0.56544 41.6982 -31.0767 
0.56542 31.2982 -31.0754 -41.1319 26.4982 -31.5464 -30.7326 26.4982 -31.4288 
-30.7326 -0.00176 -31.4255 -41.132 -0.00176 -31.5431 -26.2608 42.5019 -2.37834 
-26.2609 30.5019 -2.37684 -30.2606 26.5019 -2.42158 -42.2598 26.5019 -2.5573 
42.3984 -26.5033 -42.5958 42.3984 -0.00325 -42.5991 31.9991 -0.00325 -42.7167 
31.9991 -26.5033 -42.7134 31.1991 -26.5033 -42.7225 27.1994 -30.5033 -42.7672 
27.1994 -31.3032 -42.7671 0.70105 -31.3032 -43.0668 0.70104 -41.7033 -43.0655 
27.1993 -41.7033 -42.7658 27.1993 -42.5033 -42.7657 31.1991 -46.5033 -42.72 
31.1991 -55.5033 -42.7188 47.198 -55.5033 -42.5379 56.1975 -46.5033 -42.4372 
56.1975 -30.5033 -42.4392 47.1981 -30.5033 -42.541 43.1983 -26.5033 -42.5867 
55.9939 -30.501 -24.4404 55.9939 -46.501 -24.4384 46.9945 -55.501 -24.539 
30.9955 -55.501 -24.72 30.9955 -46.501 -24.7211 42.9947 -46.501 -24.5854 
46.9945 -42.501 -24.5406 46.9945 -30.501 -24.5422 30.7354 -46.4981 -1.72259 
26.7356 -42.4981 -1.76833 26.7357 -30.4981 -1.76982 30.7354 -26.4981 -1.72508 
42.7346 -26.4981 -1.58937 46.7344 -30.4981 -1.54363 42.7346 -46.4981 -1.58687 
46.7344 -42.4981 -1.54213 27.0636 -31.3018 -30.7679 27.0636 -41.7018 -30.7666 
0.56532 -41.7018 -31.0663 0.56533 -31.3018 -31.0676 42.2627 -26.5017 -30.5965 
31.8633 -26.5017 -30.7142 31.8634 -0.00176 -30.7175 42.2627 -0.00176 -30.5998 
26.7356 -42.4981 -1.76833 26.7357 -30.4981 -1.76982 30.7354 -26.4981 -1.72508 
42.7346 -26.4981 -1.58937 -42.2599 -26.4981 -2.55069 -30.2607 -26.4981 -2.41497 
-26.2609 -30.4981 -2.36923 -26.261 -42.4981 -2.36774 -29.797 -26.5033 -43.4123 
-41.7962 -26.5033 -43.5481 -40.9963 -26.5033 -43.539 -41.132 -26.5017 -31.5398 
-30.7327 -26.5017 -31.4221 -30.5969 -26.5033 -43.4214 -25.7973 -42.5033 -43.3651 
-25.7973 -30.5033 -43.3666 -25.7973 -31.3032 -43.3665 -25.933 -31.3018 -31.3673 
-25.933 -41.7018 -31.366 -25.7973 -41.7033 -43.3652 -45.9996 -42.501 -25.5924 
-45.9995 -30.501 -25.594 -41.9998 -46.501 -25.5467 -30.0006 -46.501 -25.411 
-41.132 -0.00176 -31.5431 -30.7326 -0.00176 -31.4255 -30.5969 -0.00325 -43.4247 
-40.9962 -0.00325 -43.5423 0.56533 -31.3018 -31.0676 0.56532 -41.7018 -31.0663 
0.70105 -31.3032 -43.0668 0.70104 -41.7033 -43.0655 -30.0006 -55.501 -25.4099 
-45.9996 -55.501 -25.5908 -54.999 -46.501 -25.6937 -54.999 -30.501 -25.6957 
-54.7954 -30.5033 -43.6946 -45.796 -30.5033 -43.5928 -54.7954 -46.5033 -43.6926 
-29.797 -46.5033 -43.4099 -29.797 -55.5033 -43.4087 -45.796 -55.5033 -43.5897 
-44.1355 -46.1898 27.9325 -45.4331 -45.3228 27.9177 -46.3002 -44.0251 27.9077 
-46.6046 -39.4943 27.9037 -46.6046 -36.4943 27.9034 -46.6046 -33.4943 27.903 
-46.6046 -27.4443 27.9022 -46.6046 -24.3943 27.9019 -46.6046 -21.3443 27.9015 
-46.6046 -18.2943 27.9011 -46.6046 -15.2443 27.9007 -46.6046 -12.1943 27.9003 
-46.6046 -9.14434 27.9 -46.6046 -6.09434 27.8996 -46.6046 -3.04434 27.8992 
-46.6046 0.00566 27.8988 -46.6046 3.05566 27.8984 -46.6046 6.10566 27.8981 
-46.6045 9.15566 27.8977 -46.6045 12.2057 27.8973 -46.6045 15.2557 27.8969 
-46.6045 18.3057 27.8965 -46.6045 21.3557 27.8962 -46.6045 24.4057 27.8958 
-46.6045 27.4557 27.8954 -46.6045 33.5057 27.8946 -46.6045 36.5057 27.8943 
-46.6045 39.5057 27.8939 -46.3 44.0364 27.8968 -45.433 45.3341 27.9064 
-44.1354 46.2012 27.921 -39.6049 46.5057 27.9722 -36.6051 46.5057 28.0061 
-33.6053 46.5057 28.0401 -27.5557 46.5057 28.1085 -24.5059 46.5057 28.143 
-21.4561 46.5057 28.1775 -18.4063 46.5057 28.212 -15.3565 46.5057 28.2465 
-12.3067 46.5057 28.2809 -9.25689 46.5057 28.3154 -6.20709 46.5057 28.3499 
-3.15728 46.5057 28.3844 -0.10748 46.5057 28.4189 2.94232 46.5057 28.4534 
5.99213 46.5057 28.4879 9.04193 46.5057 28.5224 12.0917 46.5057 28.5569 
15.1415 46.5057 28.5914 18.1913 46.5057 28.6259 21.2411 46.5057 28.6604 
24.291 46.5057 28.6949 27.3408 46.5057 28.7294 33.3904 46.5057 28.7978 
36.3902 46.5057 28.8317 39.39 46.5057 28.8657 43.9204 46.2012 28.9169 
45.218 45.3341 28.9317 46.0851 44.0364 28.9417 46.3895 39.5057 28.9457 
46.3895 36.5057 28.9461 46.3895 33.5057 28.9464 46.3895 27.4557 28.9472 
46.3895 24.4057 28.9476 46.3895 21.3557 28.948 46.3895 18.3057 28.9483 
46.3895 15.2557 28.9487 46.3895 12.2057 28.9491 46.3895 9.15566 28.9495 
46.3895 6.10566 28.9499 46.3895 3.05566 28.9502 46.3895 0.00566 28.9506 
46.3895 -3.04434 28.951 46.3895 -6.09434 28.9514 46.3895 -9.14434 28.9518 
46.3895 -12.1943 28.9521 46.3895 -15.2443 28.9525 46.3895 -18.2943 28.9529 
46.3895 -21.3443 28.9533 46.3894 -24.3943 28.9537 46.3894 -27.4443 28.954 
46.3894 -33.4943 28.9548 46.3894 -36.4943 28.9552 46.3894 -39.4943 28.9555 
46.0849 -44.0251 28.9527 45.2179 -45.3228 28.943 43.9203 -46.1898 28.9284 
39.3899 -46.4943 28.8773 36.39 -46.4943 28.8433 33.3902 -46.4943 28.8094 
27.3406 -46.4943 28.741 24.2908 -46.4943 28.7065 21.241 -46.4943 28.672 
18.1912 -46.4943 28.6375 15.1414 -46.4943 28.603 12.0916 -46.4943 28.5685 
9.0418 -46.4943 28.534 5.992 -46.4943 28.4995 2.94219 -46.4943 28.465 
-0.10761 -46.4943 28.4305 -3.15742 -46.4943 28.396 -6.20722 -46.4943 28.3615 
-9.25702 -46.4943 28.327 -12.3068 -46.4943 28.2925 -15.3566 -46.4943 28.258 
-18.4064 -46.4943 28.2236 -21.4562 -46.4943 28.1891 -24.5061 -46.4943 28.1546 
-27.5558 -46.4943 28.1201 -33.6055 -46.4943 28.0516 -36.6053 -46.4943 28.0177 
-39.6051 -46.4943 27.9838 30.4622 46.5049 22.4309 30.4264 46.5053 25.5974 
30.7016 46.5022 1.26562 30.6677 46.5026 4.26543 30.6337 46.503 7.26524 
30.5998 46.5033 10.265 30.5659 46.5037 13.2649 30.5319 46.5041 16.2647 
33.7353 46.5019 -1.70026 36.7351 46.5019 -1.66633 39.7349 46.5019 -1.6324 
42.7008 46.5022 1.40134 42.6669 46.5026 4.40115 42.6329 46.503 7.40096 
42.599 46.5033 10.4008 42.5651 46.5037 13.4006 42.5312 46.5041 16.4004 
42.4614 46.5049 22.5667 42.4256 46.5053 25.7331 -30.5339 46.5049 21.7411 
-30.5697 46.5053 24.9075 27.4482 46.5045 19.23 24.3984 46.5045 19.1955 
21.3486 46.5045 19.161 18.2988 46.5045 19.1265 15.249 46.5045 19.092 
12.1992 46.5045 19.0575 9.14937 46.5045 19.023 6.09957 46.5045 18.9885 
3.04977 46.5045 18.954 -4e-005 46.5045 18.9195 -3.04984 46.5045 18.885 
-6.09965 46.5045 18.8505 -9.14945 46.5045 18.816 -12.1993 46.5045 18.7815 
[...]
CELL_DATA 12638
SCALARS cell_scalars float
LOOKUP_TABLE default
-9993.1 -9524 -10040 -10116 -9687.1 -10202 -10243 -9557.4 -9779.2 
-9402.8 -9739.9 -9232 -9527.4 -8980.1 -9387.6 -8929.2 -9202.1 -8727.5 
-9058.9 -8570.6 -8855.1 -8355.6 -8905.7 -8337.8 -9152.4 -8540.5 -9337.2 
-8678.9 -9470.2 -8748.3 -9313 -8832.6 -9406.3 -8943.9 -9680.4 -9118 
-9588.5 -9173.1 -9707.1 -9314.8 -9825.5 -9426 -9949.8 -9548.7 -10055 
-9677 -10154 -9795.4 -10267 -9919.7 -10318 -10016 -10430 -10137 
-10520 -10232 -10601 -10293 -10597 -10294 -10572 -10259 -10609 
-10364 -10804 -10807 -10554 -10824 -10894 -10513 -10821 -10411 
-10771 -10409 -10753 -10359 -10746 -10388 -10748 -10365 -10740 
-10366 -10738 -10360 -10719 -10332 -10750 -10329 -10727 -10326 
-10725 -10341 -10727 -10351 -10720 -10323 -10744 -10341 -10731 
-10340 -10739 -10353 -10736 -10351 -10737 -10360 -10731 -10356 
-10754 -10366 -10756 -10377 -10752 -10376 -10766 -10393 -10754 
-10383 -10729 -10369 -10733 -10354 -10726 -10371 -10773 -10472 
-10847 -10813 -10552 -10825 -10823 -10390 -10660 -10325 -10609 
-10292 -10583 -10301 -10589 -10219 -10486 -10127 -10414 -10010 
-10297 -9879.4 -10235 -9778 -10128 -9652.5 -10024 -9510 -9903.8 
-9379.1 -9797.3 -9235 -9619.8 -9105.5 -9484.9 -8973.2 -9331 -8899.1 
-9353.2 -8807.4 -9243 -8715.3 -9410.4 -8667.1 -9272.4 -8533.9 -9085.7 
-8359.6 -8818.4 -8480.1 -8921.6 -8653.2 -9115.4 -8803.7 -9268.5 -8998 
-9431.1 -9091.6 -9668.2 -9275.4 -9723.7 -9400.2 -9817.9 -9616.2 -10132 
-10024 -9477.9 -9922.6 -10188 -9661.6 -10182 -9562.4 -10129 -9565.4 
-10157 -9605.3 -10136 -9584.5 -10044 -9510.9 -9986.4 -9523.4 -9970.7 
-9547.5 -9945.9 -9534.4 -9977 -9522.3 -9964.3 -9529.9 -9891.1 -9544.4 
-9887.3 -9579.4 -9866.9 -9492.9 -9895 -9500.4 -9890.1 -9511.8 -9902 
-9495 -9860.6 -9522.5 -9885.9 -9516.7 -9894.3 -9482.8 -9905.6 -9488.4 
-9946.7 -9486.2 -9947.2 -9460.6 -9962.7 -9499.6 -10041 -9493.1 -10066 
-9536.3 -10131 -9536.2 -10081 -9519 -9506 -9370.5 -9363.1 -9397.9 
-9303.8 -9296.7 -10104 -10126 -10076 -10026 -9986.8 -10067 -10163 
-10131 -10039 -9978 -9166.8 -9190.8 -9037.9 -9078.6 -8803 -8947.2 
-8731.5 -8839.5 -8559.4 -8716.8 -8424.6 -8532.3 -8166 -8371.6 -8308.6 
-8235.6 -8346.7 -8324.7 -8422.7 -8420.7 -8478.5 -8492.1 -8572.2 -8532.8 
-8663.9 -8634.3 -8788 -8719.8 -8861 -8852.9 -9030.3 -8958.7 -9120.1 
-9063 -9258.9 -9183.3 -9379 -9301.1 -9513.1 -9432.4 -9628.6 -9542 
-9762.4 -9656 -9867.7 -9768.1 -9962.6 -9872.2 -10014 -9939.9 -10019 
-9996.5 -9306.4 -9262.8 -9228.3 -9260.1 -9291.7 -9366.3 -9310.2 -9382 
-9263.2 -9398.7 -9384.4 -9457.2 -9387.8 -9370.5 -9418.1 -9340.7 -9286.6 
-9289.3 -9316.7 -9327.6 -9258 -9286.7 -9273.3 -9326.7 -9223 -9317.1 
-9229.1 -9293.9 -9246.5 -9324.2 -9268.8 -9312.6 -9273.2 -9348.5 -9241.9 
-9373.5 -9269.2 -9425.4 -9261.4 -9430.1 -9318.2 -9427.3 -9367.2 -9437.2 
-9341.7 -9482.2 -9393.6 -9335.7 -9388.7 -9277.4 -9331.4 -9259.3 -9283.5 
-10054 -9937.1 -9985.9 -9943 -10013 -9916.1 -9975.7 -9935.5 -10012 
-9905.4 -10046 -10015 -10058 -9984.3 -10036 -10021 -10045 -9988.4 
-10041 -10029 -10054 -9991.3 -10049 -9988.4 -10048 -9997.4 -10059 
-10010 -10053 -10011 -10053 -9990 -10053 -10001 -10056 -10004 
-10059 -10009 -10041 -10010 -10010 -9956.1 -10005 -9947.5 -10003 
-9918.9 -9995.5 -9916.9 -9976.3 -9939.5 -10037 -9913.9 -10006 -9970.2 
-9994.1 -9909.3 -10013 -9947.9 -9983.5 -9994.7 -9900.5 -9926.5 -9779.7 
-9807.6 -9676.9 -9711.8 -9540.9 -9583.1 -9410.7 -9466.6 -9294.9 -9332.3 
-9144.4 -9209.8 -9058.6 -9092.5 -8903.1 -8981.9 -8814.3 -8870.3 -8700.1 
-8758.2 -8615.8 -8673.6 -8507.5 -8562.5 -8436.9 -8496.9 -8352.8 -8401.6 
-8294 -8406.3 -8194.3 -8288.6 -8356.2 -8326.6 -8602.8 -8465.3 -8815.9 
-8738.1 -8921.7 -8852.5 -9030.3 -8933.4 -9091.7 -9029.7 -9904.7 -9179.8 
-9967.9 -9919.2 -9174.1 -9976.7 -9237.2 -9154.8 -9179.3 -9101.3 -9090.6 
-9868.3 -9898.9 -9907.3 -9894.4 -8990.1 -9025.8 -9952.1 -9913.5 -9280.2 
-9264.4 -8961.9 -8952.4 -9936.8 -9957.8 -8782.4 -8779.5 -8726.4 -8738.8 
-8431.7 -8500.2 -8329.1 -8369.7 -8363.1 -8329.5 -8385.9 -8368.9 -8483.4 
-8383 -8523.2 -8444.9 -8619.4 -8542.4 -8700.4 -8620.8 -8816 -8709.1 
-8904.5 -8823.5 -9025.8 -8940.5 -9147.3 -9058.5 -9264.7 -9171.2 -9378.2 
-9287.1 -9469.4 -9404.8 -9564.3 -9521.8 -9699.6 -9637.6 -9812.5 -9734.5 
-9907.5 -9874 -9852.1 -9880.7 -9755.1 -9779.3 -9655 -9691.2 -9543.6 
-9582 -9418.9 -9450.4 -9284.3 -9327.6 -9175.1 -9207 -9060.3 -9074.5 
-8946.3 -8984.3 -8844.8 -8852.8 -8702.6 -8779.4 -8642.6 -8635.3 -8538.5 
-8573.4 -8489.4 -8458.2 -8386.2 -8377.7 -8310.7 -8332.4 -8223.7 -8202.3 
-8468.4 -8370.5 -8503.4 -8524.2 -8643.8 -8543.7 -8728.5 -8699.3 -9109.2 
-8933.8 -9965 -9948.9 -9012 -8975.6 -9172.5 -9172.5 -9170.6 -9180.6 
-9297.9 -9196.1 -9166.1 -9190.8 -9267.2 -9171.2 -9239.7 -9247.6 -9256.4 
-9258.6 -9280.2 -9192 -9228.2 -9154.2 -9282.7 -9198.3 -9246.4 -9179.8 
-9273.3 -9221.2 -9233.4 -9190.9 -9228.4 -9215.7 -9243.4 -9231.3 -9246 
-9239.1 -9280.9 -9232 -9211.1 -9240.9 -9195.5 -9161.8 -9240.7 -9156.8 
-9215.8 -9230.8 -9198 -9164.4 -9250.7 -9116.2 -9188.7 -9151 -9892.4 
-9886.2 -9857.5 -9889.6 -9935.6 -9885.5 -9902.5 -9903.1 -9927.7 -9959 
-9933.2 -9884.5 -9958.7 -9976.4 -9991 -9971 -9994.2 -9972.4 -9967.6 
-9968.2 -9965.9 -9971.6 -9984.6 -9984.6 -9970.4 -9978 -9942.1 -9988.2 
-9922.2 -9953.4 -9931.8 -9923.4 -9924.8 -9903.9 -9920.4 -9919.1 -9914.4 
-9929.4 -9918.4 -9952.9 -9953.7 -9952.4 -9942.4 -9962.3 -9857 -9881.9 
-9876.2 -9881.3 -9885.8 -9885.3 -9881.2 -9101.2 -9207 -9284.4 -9154.2 
-9079 -9129.3 -9917.9 -9937.4 -9909.1 -9932.8 -9904.3 -9902.1 -9912.9 
-9902.3 -9899.8 -9923.9 -9946.7 -8932.9 -9051.6 -9076.3 -9048.7 -8839.4 
-9033.6 -8639.8 -8892 -9852.9 -9906.2 -9131.3 -9138.1 -9892.6 -9880.9 
-8595.8 -8633.1 -9750.2 -9786.9 -9173 -9170.4 -8524.2 -8486.1 -8354.6 
-8454.6 -8292 -8215.2 -8278.2 -8198 -8306.4 -8294 -8365.4 -8350.4 
-8488.3 -8455.3 -8577.1 -8509.6 -8678.5 -8620.2 -8762.2 -8743.8 -8893.6 
-8840.6 -9014.5 -8970.7 -9128.3 -9090.4 -9263.8 -9213.7 -9380 -9319.3 
-9534.3 -9450.5 -9688.1 -9630.1 -9726.5 -9708.5 -9836.7 -9780.5 -9965.9 
-9945.2 -9660.5 -9701.2 -9519.5 -9618 -9410.3 -9480.7 -9296.3 -9361 
-9166.1 -9232.2 -9033.8 -9113.8 -8914.1 -8993.5 -8814.4 -8870.1 -8705.8 
-8745.2 -8609.1 -8626 -8491.5 -8560.8 -8355.6 -8475.8 -8343.1 -8373.8 
-8244.1 -8313.7 -8164.5 -8210.3 -8321.1 -8234 -8424.2 -8312.7 -8653.4 
-8608.9 -8782.2 -8632.1 -8751.1 -8826.3 -8958.6 -8902 -9166.8 -9153.7 
-9167.5 -9152.6 -9098.5 -9141.4 -9251.2 -9127.3 -9253.2 -9168.5 -9206.2 
-9214.1 -9225.9 -9280 -9191.4 -9248.2 -9194.7 -9212.4 -9178.7 -9270.7 
-9133 -9223.9 -9125.6 -9128 -9120.6 -9070.8 -9080.3 -9058.9 -9084.3 
-9111.5 -9099.8 -9115.7 -9113.7 -9183.3 -9157.6 -9130.2 -9140.5 -9070.2 
-9126.2 -9115.7 -9040.1 -9057.4 -9932.1 -9921.9 -9970 -9924.7 -9963.3 
-9993.7 -9930.6 -9982.2 -9920.8 -9928.2 -9926 -9943.4 -9920.6 -9945.2 
-9934.9 -9955.1 -9926.6 -9947.2 -9927.6 -9957.2 -9944.3 -9955.8 -9968.5 
-9976.2 -9968.6 -9995.8 -9994.5 -10008 -10004 -10027 -10007 -10027 
-10011 -10020 -9979.4 -10000 -9938.5 -9917.3 -9945 -9952 -9926.6 
-9911.5 -9916.8 -9897.4 -9181.1 -9110.8 -9064.8 -9901.2 -9899.5 -9044.1 
-9081.6 -8943.1 -9919.6 -9918.1 -8970.9 -9004.9 -9943.7 -9951 -9945 
-9914.6 -9890.8 -8984.4 -9062.2 -9082.7 -8843.1 -8906.5 -8840.6 -8890.8 
-8740.9 -8739 -9928 -9922.3 -9820.4 -9868.3 -9744.8 -9749 -8822.5 
-8847.4 -9930 -9932 -9902.1 -9919.9 -9077.3 -8982.8 -9955.8 -9943.2 
-8729.8 -8837.2 -9802.4 -9819.7 -9092.7 -9055.6 -8504.3 -8537.2 -9615.2 
-9654.9 -9986.1 -9996.3 -9947.4 -9982.6 -9973.3 -9972.3 -10004 -9975.1 
-10044 -10023 -10058 -10040 -10041 -10052 -10044 -10060 -10035 
-10071 -10036 -10059 -10041 -10066 -10033 -10075 -10040 -10065 
-10044 -10048 -10023 -10028 -9090.2 -8997.5 -9194.7 -9187.7 -9188.4 
-9161.6 -9171.7 -9199.9 -9155 -9149.1 -9121.6 -9137.3 -9144.5 -9090.2 
-9050.8 -9034.4 -8961.1 -9054.6 -8991.2 -9016.8 -8967.1 -8964 -9005.1 
-8981.4 -9001.3 -8980.7 -9045 -8903.2 -8998 -8954.1 -9687 -9738.7 
-9585 -9627.4 -9517.6 -9517.7 -9394.8 -9460.5 -9265.5 -9341.1 -9163.2 
-9226.9 -9026.2 -9102.4 -8903.7 -8980.1 -8772.8 -8822 -8684.5 -8708 
-8548.5 -8629.8 -8488.8 -8561.6 -8398.8 -8442.8 -8283.8 -8404 -8264.9 
-8327.4 -8222.2 -8241.9 -8636.7 -8731.4 -8552.5 -8614.5 -8212.1 -8432 
-8487.8 -8336.9 -8439.5 -8423.6 -8499.5 -8481.5 -8521.6 -8556.1 -8583 
-8574 -8652.5 -8641.6 -8767.9 -8728.3 -8908.4 -8850.9 -9028 -8960.9 
-9159.2 -9108.1 -9301 -9247.4 -9426.5 -9371.3 -9536.5 -9487 -10034 
-10068 -9080.7 -8958.9 -9971.7 -9993.6 -9185.2 -9068.9 -9956.7 -9975.3 
-9145.6 -9045 -9939.2 -9980.9 -9073.2 -9088.6 -8425 -9571.2 -9018.2 
-9921.4 -9930.5 -9935.3 -8940.6 -8910.9 -8943.3 -8850.8 -8844.3 -8993.9 
-9885 -9915.9 -9861.2 -9930.4 -8920.5 -8881.4 -8772 -8792.8 -8671.4 
-9865 -9898.3 -9794.7 -9788.7 -9672.2 -9716.1 -9015.3 -9042.7 -9968.7 
-9922.5 -8984.7 -8978.4 -9072.9 -8984 -9052.5 -9028.2 -9060.6 -8957.4 
-9075 -9075.3 -9107.4 -8995 -9042.4 -9071.6 -9032.1 -9052.1 -9084.7 
-9038.3 -9069.7 -9022.1 -9091.4 -9073.5 -9068.6 -8923.2 -9052.3 -9037.1 
-8876.1 -8841.4 -9014.9 -8974.8 -8972.7 -8833.3 -8985.5 -8882.7 -8963.7 
-8964.1 -9986.8 -9973.2 -9986.6 -9973.8 -10022 -9985.6 -10021 -9958.9 
-10026 -9997.3 -10046 -9996.3 -10054 -9998.1 -10026 -10016 -10028 
-10010 -10089 -10022 -10044 -10016 -10022 -10017 -9955.2 -10001 
-9968.8 -9975.8 -9988.7 -9949.3 -10000 -9952.5 -9973.7 -9936.6 -9951.6 
-9952 -9762.9 -9814.1 -9677 -9723.4 -9515.4 -9614.1 -9385.5 -9448.1 
-9284.7 -9342.2 -9142.3 -9194.1 -9027.5 -9046.9 -8909 -8971 -8860.1 
-8865.3 -8755.2 -8813.5 -8665.3 -8706 -8613.1 -8614.4 -8528.9 -8487.1 
-8466.4 -8415.6 -8439 -8452.1 -8328.1 -8363.1 -8775.9 -8806.8 -8452.7 
-8545.3 -8349.2 -8392.8 -8221.7 -8238.9 -8241.3 -8190.1 -8317.4 -8315.6 
-8442.7 -8339.9 -8605 -8501.5 -8651 -8628 -8802.2 -8723.6 -8899.3 
-8837.1 -8987.4 -8904.4 -9057.5 -9026.3 -9156.8 -9112.2 -9288.2 -9206.1 
-9393.4 -9327.8 -9903.6 -8912.4 -9924.9 -9821.2 -9861.1 -8946.8 -8860.9 
-8807.1 -9577.5 -9613.7 -9474.9 -8326.8 -8391.8 -8581.9 -8402.3 -8921.3 
-8891.6 -8747.7 -9900.7 -9875.6 -9839.5 -9723.5 -9780 -8872.8 -8873.7 
-8965.7 -8831.9 -8930.4 -8894.5 -8907.1 -8916.4 -8837.4 -8856.3 -8920.9 
-8896.8 -8917.6 -8789.9 -8921.4 -8817 -8865.9 -8784.1 -8852.3 -8772.9 
-8763 -8734.9 -8799.6 -8752.5 -9010.2 -8881.9 -8930.2 -8902.3 -8824.2 
-8826.4 -8868.8 -8831 -8831.8 -8870.5 -9905.4 -9871.7 -9935.5 -9888.4 
-9950.8 -9902.9 -9943.7 -9921.6 -9955.9 -9882.3 -9937.6 -9921.8 -9960.2 
-9905.5 -9937.3 -9904.4 -9940.4 -9891.4 -9919 -9891.1 -9904.4 -9879.9 
-9903.6 -9850.4 -9913.7 -9880.5 -9919.3 -9894.6 -9947.6 -9917.5 -9895.1 
-9907.9 -9923.9 -9864 -9702.8 -9773.6 -9627.4 -9648.1 -9510.8 -9553.6 
-9405.2 -9460.1 -9263.1 -9331.2 -9100 -9213.4 -8984 -9074.7 -8883.7 
-8952.5 -8767.4 -8802.7 -8654.4 -8654.5 -8525 -8606.9 -8435.2 -8471.3 
-8389.2 -8402.3 -8310 -8332 -8293.7 -8251.2 -8717 -8808.2 -8793.9 
-8482.7 -8552.9 -8266.7 -8399.2 -8410.5 -8295.3 -8388.8 -8394.6 -8399.2 
-8440.1 -8502.2 -8498 -8546.7 -8473.1 -8659 -8562 -8742.2 -8683.2 
-8884 -8784 -9002.7 -8928.4 -9108 -9044.9 -9220.5 -9178.2 -9347.2 
-9301.3 -8852.7 -8792.8 -9856.6 -9778.3 -8602.7 -8720.3 -8747.8 -8768 
-8700.1 -8690.7 -8584.2 -8797.2 -8645.9 -9825.5 -9783.8 -8750.2 -8750.1 
-9613.6 -9682.9 -9469.4 -9535.4 -9434.5 -8820.1 -8657 -8719.6 -8720 
-8637.7 -8813.6 -8749.3 -8659.9 -8848.9 -8731.9 -8833.9 -8759.1 -8716.4 
-8765.4 -8704 -8749.1 -8676.2 -8703.5 -8665.7 -8659.6 -8720.4 -8670.7 
-8279.8 -8281.5 -8425.7 -8402.7 -8596.1 -8647.5 -8734 -8700 -8699.5 
-8644.5 -9632.4 -9722 -9818.1 -9745.5 -9768.7 -9757.9 -9804.8 -9735.6 
-9805.5 -9755.1 -9823 -9767.7 -9813.8 -9803 -9820.3 -9800.8 -9799 
-9771.1 -9781 -9723.2 -9790.4 -9743.9 -9792.7 -9739.3 -9785.1 -9737.8 
-9772.6 -9759.3 -9811.2 -9765 -9816.8 -9792.5 -9796.1 -9769.8 -9549.2 
-9607.1 -9400.9 -9507.9 -9285.2 -9317.9 -9161.5 -9198.4 -9090.6 -9132.3 
-8982.6 -9033 -8829.9 -8912.4 -8769.6 -8832.6 -8668.8 -8744.5 -8557.1 
-8595.8 -8512 -8575.9 -8434.2 -8488.3 -8403.8 -8438.5 -8338.4 -8394 
-8334.6 -8257.5 -8241 -8278.3 -8368.7 -8329 -8534.9 -8433.4 -8516.4 
-8515 -8675.2 -8662.6 -8732.5 -8702.5 -8874.2 -8846.6 -8969 -8920.9 
-9075.8 -9017 -9213.4 -9136.4 -9300.5 -9255.1 -8635.4 -8647.9 -9773.1 
-8607.9 -8561.1 -8623.5 -8590.7 -8560.9 -8540.4 -8531.7 -8629.1 -9675.8 
-9723.3 -9665.3 -9598 -9697 -8381.8 -8480.2 -8237.4 -8355 -8197.7 
-9485.9 -9555.7 -9514.2 -9590.2 -9450.2 -9516.4 -9359.1 -8408.2 -8343.1 
-9704.8 -9662.1 -9718.1 -9675.1 -9715.5 -9676.8 -9705.1 -9666.6 -9716.8 
-9641.7 -9725.6 -9666.9 -9723.7 -9689 -9739.9 -9706.5 -9730 -9710.5 
-9727.3 -9715.7 -9721.5 -9713.5 -9715.8 -9701.3 -9674.8 -9649.8 -9711.9 
-9655.2 -9343.4 -9431.9 -9255.7 -9304.5 -9120.9 -9199 -9007.9 -9068.2 
-8845 -8914.3 -8804.5 -8799 -8677.1 -8743.9 -8603.4 -8623.6 -8550.2 
-8560.6 -8449.8 -8487.5 -8375.3 -8370.4 -8196.4 -8296.6 -8393.6 -8340.7 
-8427.4 -8392.3 -8446.4 -8388.6 -8603.5 -8520.6 -8646.4 -8613.5 -8779.5 
-8708.8 -8853.2 -8794.4 -8974.7 -8932.9 -9081.2 -9043 -9194.8 -9134.1 
-8548.8 -8561.4 -8653.3 -8635.5 -8483.9 -8565.1 -8568.2 -8429.9 -8593.9 
-8524.5 -8619 -8525.9 -8661.1 -8559.4 -8728.7 -8621.3 -8660.1 -8671.1 
-8586 -8688 -8631.3 -8564.4 -8637.5 -8567.1 -9707.6 -8374.6 -8492.9 
-8478.7 -8439.7 -9559.9 -9604 -9424.6 -9462.6 -9648.5 -9645.3 -9597.9 
-8366.1 -8372.4 -9310.3 -9375.2 -9636.8 -9586.1 -8327.8 -8307 -9589.2 
-9580.1 -9198.2 -9246.3 -8362.6 -8395 -9581.2 -9554.7 -8418.3 -8338.1 
-9585 -9583.4 -9567.9 -9539.4 -9573.8 -9547.2 -9566.8 -9512.2 -9578 
-9547.9 -9585 -9514 -9600.5 -9539.9 -9593.2 -9541.5 -9651.1 -9571.1 
-9604 -9593.5 -8375.5 -8321.8 -8425.8 -8403.8 -8547.8 -8494.9 -8514.3 
-8607 -8562.4 -8565.8 -9076.2 -9103.5 -8991.3 -9052.5 -8848.6 -8923.3 
-8698.7 -8789.6 -8584.5 -8643 -8513.8 -8563.5 -8423.6 -8480.4 -8340.1 
-8356.1 -8476.8 -8445.6 -8524 -8453.7 -8662 -8617.4 -8743.5 -8689.5 
-8846.3 -8790 -8965.9 -8907 -9085.5 -9030.6 -9193.9 -9149.1 -9271.5 
-9316.2 -9489.3 -9377.1 -8494.8 -8385.8 -8435.3 -8359.4 -8386.2 -8355.6 
-8356.7 -8334.3 -8357.5 -8403.8 -8304.2 -8294.9 -8287.1 -8323.1 -8465.3 
-8309 -8526.3 -8411.4 -8468.7 -8353.6 -9527 -8219.3 -9501.9 -9454.5 
-9526.3 -9325.5 -9380.2 -9248.9 -9580.6 -9522 -9548.6 -9394.7 -9438.2 
-9297 -9326.9 -9234.4 -8275.2 -8294.1 -8322.1 -8366.3 -8353.2 -8286.6 
-8253.3 -8254.9 -8223.7 -8256.4 -8116.7 -8375.8 -8518.4 -8347.1 -8371.2 
-8388.3 -8255.9 -8281.6 -8290.5 -8230.6 -8204.1 -8258.2 -8190.6 -8225.4 
-8266.9 -8190.7 -8215.2 -8214.4 -8191 -8142.8 -8202.2 -8463.1 -8239.3 
-8264.4 -8367.9 -9147.1 -9213.5 -9005.3 -9057.9 -8913.7 -8949.3 -8851.9 
-8829 -8758.9 -8800.8 -8695.5 -8721.6 -8585.7 -8652.2 -8487.2 -8580.7 
-8436.3 -8355.9 -8515.8 -8415.8 -8517.3 -8540.9 -8611.2 -8580.6 -8696.7 
-8650.2 -8862.7 -8788.2 -8966.4 -8915.1 -9097.1 -8999.9 -9513.8 -9487.8 
-9479.6 -9453.5 -9527.9 -9445.9 -9526.7 -9478.6 -9524.5 -9478.7 -9531.1 
-9506 -9492.6 -9483.8 -9475.3 -9480.9 -9451.4 -9454.3 -9484.6 -9423.7 
-9473.3 -9428.7 -9386.3 -9358.4 -9238.6 -9274.3 -9448.8 -9485.5 -9461.5 
-9331.8 -9399.4 -8294.9 -8394.5 -8365.3 -8322.5 -8300.8 -8461.7 -8270.2 
-9211.6 -9325.1 -9173.3 -8386.7 -8259.5 -8348.9 -8427.1 -8479.3 -8429 
-8317.4 -8381.8 -8345 -8302.3 -8381.8 -8266 -8458.9 -8524.1 -8439.7 
-8394.3 -8403.7 -8413.6 -8422.4 -8386.9 -8301.8 -8371.8 -8264.9 -8263.9 
-9134.1 -9168.9 -9401.6 -9369.3 -9340.5 -9330.5 -9347.7 -9332.9 -9359.9 
-9319.8 -9348.4 -9283.1 -9329.3 -9294.8 -9402.8 -9315.6 -9412.9 -9362.2 
-9359.6 -9364.4 -9356.4 -9290.9 -8984.6 -9056.2 -8810.6 -8897.9 -8691.8 
-8778.9 -8650.7 -8676.3 -8533.2 -8608.3 -8412.1 -8450.5 -8455.7 -8366.9 
-8343.6 -8517.6 -8474.1 -8644.5 -8558 -8719 -8677.2 -8880.2 -8815.2 
-8956.2 -8902.9 -9011.8 -9007 -8382.3 -8378.1 -9306.3 -9387.2 -9352 
-9310.3 -8325.5 -8359.3 -8417.9 -8394.4 -8425.9 -8404.7 -8506.4 -8512.1 
-8567.9 -8527.1 -9142.6 -9242.8 -9260.4 -9211.2 -9293.4 -9241.7 -8697.7 
-8625.9 -9298.2 -9280 -8294.3 -8314.1 -8448.6 -8366.9 -8404 -8391.8 
-8330.6 -9154.7 -9216.5 -9074.7 -9255.3 -9214.3 -9288.4 -9256 -9287.8 
-9252.4 -9286.6 -9255.7 -9243.2 -9229.9 -9240.1 -9231.3 -8766.1 -8696.9 
-8811.4 -8774.8 -8912.1 -8874.2 -8322.2 -8358.1 -8301.4 -8260.1 -8362.9 
-8236.1 -8417.3 -8377.2 -8393 -8396.9 -8391 -8368.6 -9062.8 -9081.9 
-8956.9 -9033.4 -8821.7 -8895.7 -8713.9 -8765.6 -8605.6 -8663.5 -8470.6 
-8560.2 -9252.6 -9075.5 -9173.8 -9191.9 -8377.6 -8380.3 -8353.1 -9072.8 
-9132.5 -8975 -9174.9 -9112 -9171.5 -9130.6 -9160.8 -9127.9 -9199.4 
-9163.4 -8398.5 -8461.9 -8493.5 -8488.3 -8599.8 -8538.9 -8664.4 -8438.9 
-8411.8 -8498.1 -8950.3 -9013 -9159.8 -9156.2 -8382.6 -8392 -9145.1 
-9116.6 -8495.6 -8493.8 -8429.4 -8463.8 -8353.3 -8425 -8376.3 -8401.6 
-8360.4 -8395 -8787.4 -8899.5 -8799.1 -8782.7 -8659.5 -8746.8 -8580.9 
-8573.6 -8689.4 -8682.8 -8818.3 -8740.5 -8955.5 -8852.4 -8484 -8467.3 
-9080.2 -9039.4 -8954 -8990.8 -8389.9 -8422.9 -8342.1 -9027.5 -9069.9 
-9012.8 -8529.8 -8500 -8660.5 -8618.1 -9042.4 -9051.3 -9088 -8456 
-8491.5 -8816.9 -8946.2 -8440.9 -8446.9 -8476.1 -8471.3 -8749.7 -8708 
-8705.5 -8738 -8359.1 -8423.6 -8399.6 -8448.8 -9190.6 -9151.2 -9129.8 
-8607.9 -8691.1 -8491.4 -8510.4 -8850.6 -8801.6 -9108.2 -9045 -9022 
-9098.5 -9073.8 -8480.6 -8425.9 -8416.9 -8535.9 -8509 -9011.3 -8886.8 
-8971.4 -8960.7 -8601.3 -8563 -8576.7 -8505.6 -8633.7 -8573.3 -8674.6 
-9047.3 -9073.2 -8997.8 -9043.9 -9054.1 -8512.9 -8548.6 -8485.5 -8553.2 
-8509.3 -8573.1 -8485.3 -8502 -8911.5 -8927.1 -8805.7 -8832.3 -8662.9 
-8741.3 -8790.2 -8705.7 -8968.4 -8963.1 -8564.4 -9023.5 -8616 -8623.5 
-8689.1 -8929.4 -8913.1 -8891.6 -8842.1 -8923.1 -8960.6 -8604.9 -8578.6 
-8604.1 -8989.5 -8947.5 -8941.9 -8587.7 -8649.4 -8601.1 -8571.9 -8808.5 
-8872.2 -8671.1 -8794.4 -8618.1 -8897.9 -8674.2 -8681.9 -8623.7 -8624.5 
-8803.6 -8704.7 -8706.4 -8726.1 -8812.4 -8790.1 -8841 -8868.2 -8831.3 
-8827.9 -8843.9 -8739.2 -8779.2 21934 18122 13025 7824.8 -2163 
-4135.9 -6365.8 -8221.4 -10182 -10188 -10316 -10509 -10854 -10780 
-10791 -10868 -11050 -11000 -10995 -11026 -11152 -11120 -11111 
-11122 -11215 -11195 -11191 -11201 -11257 -11223 -11213 -11236 
-11261 -11253 -11241 -11235 -11015 -10962 -10947 -10952 -10938 
-11233 -11442 -10936 -11255 -11608 -10901 -11262 -11623 -10884 
-11264 -11639 -10874 -11278 -11636 -10846 -11288 -11605 -10803 
-11276 -11506 -10780 -11280 -11492 -10756 -11267 -11535 -10743 
-11253 -11546 -10748 -11240 -11557 -10775 -11248 -11559 -10732 
-11231 -11574 -10819 -11249 -11583 -10800 -11252 -11611 -10754 
-11257 -11612 -10713 -11251 -11674 -10719 -11236 -11775 -10767 
-11184 -11771 -10818 -11142 -11376 -10385 -10290 -10330 -10503 
-10718 -10649 -10663 -10776 -10884 -10839 -10840 -10892 -10970 
-10940 -10938 -10964 -11031 -11008 -11004 -11023 -11076 -11059 
-11054 -11064 -11120 -11095 -11089 -11098 -11169 -11128 -11117 
-11122 -11120 -11113 -11118 -11137 -10844 -10871 -10867 -10885 
-11272 -11383 -11384 -11219 -11359 -11350 -11220 -11320 -11301 
-11218 -11297 -11308 -11001 -11212 -11173 -10976 -11223 -11187 
-10984 -11264 -11239 -10941 -11124 -11068 32831 36757 36878 
33125 8549.8 12979 13140 8836.5 -7127.1 -4476.7 -4349 -6973.3 
-10721 -10464 -10456 -10712 -11086 -11028 -11028 -11086 -11219 
-11195 -11195 -11217 -11301 -11277 -11276 -11288 -11366 -11340 
-11340 -11350 -11331 -11325 -11325 -11334 -11267 -11267 -11269 
-11236 -10477 -10421 -10419 -10471 -10648 -10609 -10607 -10643 
-10737 -10708 -10707 -10733 -10810 -10789 -10787 -10807 -10877 
-10860 -10858 -10873 -10935 -10922 -10921 -10932 -10996 -10982 
-10982 -11005 -11016 -10999 -10999 -11026 -11052 -11029 -11028 
-11038 -10849 -10838 -10882 -10837 -11287 -11363 -11618 -11286 
-11380 -11844 -11290 -11393 -11858 -11289 -11397 -11849 -11290 
-11399 -11861 -11291 -11399 -11870 -11291 -11403 -11864 -11300 
-11405 -11858 -11288 -11398 -11875 -11290 -11398 -11869 -11280 
-11398 -11860 -11282 -11398 -11857 -11289 -11405 -11853 -11286 
-11402 -11861 -11282 -11398 -11862 -11280 -11398 -11858 -11282 
-11397 -11876 -11281 -11392 -11844 -11282 -11387 -11837 -11270 
-11353 -11605 -10821 -11063 -11339 -10817 -11095 -11574 -10830 
-11121 -11595 -10811 -11127 -11523 -10823 -11131 -11521 -10825 