# vtk DataFile Version 4.2
vtk output
ASCII
DATASET UNSTRUCTURED_GRID
POINTS 8741 float
-47.4482 -42.4918 27.6793 -47.4482 -30.4918 27.6771 -47.4482 30.5082 27.6661 
-47.4482 42.5082 27.6639 -43.4483 46.5082 27.6491 -31.4483 46.5082 27.607 
29.5513 46.5082 27.3929 41.5512 46.5082 27.3508 45.5512 42.5082 27.3374 
45.5512 30.5082 27.3396 45.5512 -30.4918 27.3507 45.5512 -42.4918 27.3528 
41.5513 -46.4918 27.3676 29.5513 -46.4918 27.4097 -43.4482 -46.4918 27.666 
-31.4483 -46.4918 27.6238 29.5179 46.5065 17.8929 29.4442 46.5027 -3.10693 
41.4441 46.5027 -3.14905 41.5179 46.5065 17.8508 -31.4817 46.5065 18.1071 
-43.4816 46.5065 18.1492 -43.5553 46.5027 -2.85068 -31.5554 46.5027 -2.89281 
45.5178 42.5065 17.8375 -47.4816 42.5065 18.1639 45.4441 42.5027 -3.16237 
45.4441 30.5027 -3.1602 45.5178 30.5065 17.8397 -47.4816 30.5065 18.1661 
-47.5553 30.5027 -2.83375 -47.5553 42.5027 -2.83592 45.5179 -30.4935 17.8507 
-47.4815 -30.4935 18.1772 45.4442 -30.4973 -3.14916 45.4442 -42.4973 -3.14699 
45.5179 -42.4935 17.8529 -47.4815 -42.4935 18.1793 -47.5552 -42.4973 -2.82054 
-47.5552 -30.4973 -2.82271 41.5179 -46.4935 17.8676 -43.4815 -46.4935 18.166 
41.4442 -46.4973 -3.13223 29.4443 -46.4973 -3.0901 29.518 -46.4935 17.9098 
-31.4816 -46.4935 18.1239 -31.5553 -46.4973 -2.87598 -43.5553 -46.4973 -2.83386 
-31.4816 -26.4935 18.1203 -27.4816 -30.4935 18.107 -27.4816 -42.4935 18.1091 
25.518 -42.4935 17.9231 25.518 -30.4935 17.9209 29.518 -26.4935 17.9062 
41.5179 -26.4935 17.864 41.5179 26.5065 17.8544 29.518 26.5065 17.8966 
25.518 30.5065 17.9099 25.518 42.5065 17.9077 -27.4817 42.5065 18.0938 
-27.4817 30.5065 18.0959 -31.4817 26.5065 18.1107 -43.4816 26.5065 18.1528 
-43.4816 -26.4935 18.1624 54.3002 30.4953 -44.1915 54.3002 46.4953 -44.1944 
45.3002 55.4953 -44.1645 29.3003 55.4953 -44.1083 29.3003 46.4953 -44.1067 
25.3003 42.4953 -44.0919 25.3003 41.6953 -44.0918 -1.1995 41.6953 -43.9987 
-1.1995 31.2953 -43.9969 25.3003 31.2953 -44.0899 25.3003 30.4953 -44.0897 
29.3003 26.4953 -44.1031 30.1003 26.4953 -44.1059 30.1003 -0.00474 -44.1011 
40.5003 -0.00474 -44.1376 40.5003 26.4953 -44.1424 45.3002 30.4953 -44.1599 
41.3002 26.4953 -44.1452 41.3634 46.4985 -26.1489 29.3635 46.4985 -26.1068 
29.3635 55.4985 -26.1084 45.3634 55.4985 -26.1646 54.3633 46.4985 -26.1945 
54.3633 30.4985 -26.1916 45.3634 42.4985 -26.1622 45.3634 30.4985 -26.16 
29.4442 46.5027 -3.10693 25.4443 42.5027 -3.09217 25.4443 30.5027 -3.08999 
29.4442 26.5027 -3.10331 41.4442 26.5027 -3.14543 45.4441 30.5027 -3.1602 
41.4441 46.5027 -3.14905 45.4441 42.5027 -3.16237 25.3425 31.2974 -32.09 
25.3424 41.6974 -32.0918 -1.15737 31.2974 -31.9969 -1.15738 41.6974 -31.9988 
40.5424 26.4974 -32.1424 30.1424 26.4974 -32.1059 40.5424 -0.00257 -32.1376 
30.1425 -0.00257 -32.1011 25.4443 42.5027 -3.09217 25.4443 30.5027 -3.08999 
29.4442 26.5027 -3.10331 41.4442 26.5027 -3.14543 -42.8992 26.4953 -43.8496 
-42.8992 -0.00474 -43.8448 -32.4993 -0.00474 -43.8813 -32.4993 26.4953 -43.8861 
-31.6993 26.4953 -43.8889 -27.6993 30.4953 -43.9037 -27.6993 31.2953 -43.9038 
-1.1995 31.2953 -43.9969 -1.1995 41.6953 -43.9987 -27.6993 41.6953 -43.9057 
-27.6993 42.4953 -43.9059 -31.6993 46.4953 -43.8925 -31.6993 55.4953 -43.8942 
-47.6992 55.4953 -43.838 -56.6992 46.4953 -43.8048 -56.6992 30.4953 -43.8019 
-47.6992 30.4953 -43.8335 -43.6992 26.4953 -43.8468 -56.636 30.4985 -25.802 
-56.636 46.4985 -25.8049 -47.636 55.4985 -25.8381 -31.6361 55.4985 -25.8943 
-31.6361 46.4985 -25.8927 -43.6361 46.4985 -25.8505 -47.636 42.4985 -25.8358 
-47.636 30.4985 -25.8336 -31.5554 46.5027 -2.89281 -27.5554 42.5027 -2.90612 
-27.5554 30.5027 -2.90395 -31.5554 26.5027 -2.88919 -43.5553 26.5027 -2.84707 
-47.5553 30.5027 -2.83375 -43.5553 46.5027 -2.85068 -47.5553 42.5027 -2.83592 
-27.6572 31.2974 -31.9039 -27.6572 41.6974 -31.9058 -1.15738 41.6974 -31.9988 
-1.15737 31.2974 -31.9969 -42.8571 26.4974 -31.8497 -32.4572 26.4974 -31.8862 
-32.4571 -0.00257 -31.8814 -42.8571 -0.00257 -31.8449 -27.5554 42.5027 -2.90612 
-27.5554 30.5027 -2.90395 -31.5554 26.5027 -2.88919 -43.5553 26.5027 -2.84707 
40.5003 -26.5047 -44.1328 40.5003 -0.00474 -44.1376 30.1003 -0.00474 -44.1011 
30.1003 -26.5047 -44.0963 29.3004 -26.5047 -44.0935 25.3004 -30.5047 -44.0787 
25.3004 -31.3047 -44.0785 -1.19946 -31.3047 -43.9855 -1.19945 -41.7047 -43.9837 
25.3004 -41.7047 -44.0767 25.3004 -42.5047 -44.0765 29.3004 -46.5047 -44.0898 
29.3004 -55.5047 -44.0882 45.3003 -55.5047 -44.1444 54.3002 -46.5047 -44.1776 
54.3002 -30.5047 -44.1805 45.3003 -30.5047 -44.1489 41.3003 -26.5047 -44.1356 
54.3634 -30.5015 -26.1806 54.3634 -46.5015 -26.1777 45.3634 -55.5015 -26.1445 
29.3636 -55.5015 -26.0883 29.3636 -46.5015 -26.09 41.3635 -46.5015 -26.1321 
45.3634 -42.5015 -26.1468 45.3634 -30.5015 -26.149 29.4443 -46.4973 -3.0901 
25.4443 -42.4973 -3.07679 25.4443 -30.4973 -3.07896 29.4443 -26.4973 -3.09372 
41.4442 -26.4973 -3.13584 45.4442 -30.4973 -3.14916 41.4442 -46.4973 -3.13223 
45.4442 -42.4973 -3.14699 25.3425 -31.3026 -32.0786 25.3425 -41.7026 -32.0767 
-1.15733 -41.7026 -31.9837 -1.15733 -31.3026 -31.9856 40.5424 -26.5026 -32.1329 
30.1425 -26.5026 -32.0963 30.1425 -0.00257 -32.1011 40.5424 -0.00257 -32.1376 
25.4443 -42.4973 -3.07679 25.4443 -30.4973 -3.07896 29.4443 -26.4973 -3.09372 
41.4442 -26.4973 -3.13584 -43.5553 -26.4973 -2.83748 -31.5553 -26.4973 -2.8796 
-27.5554 -30.4973 -2.89292 -27.5554 -42.4973 -2.89075 -31.6993 -26.5047 -43.8793 
-43.6992 -26.5047 -43.8372 -42.8992 -26.5047 -43.84 -42.8571 -26.5026 -31.8401 
-32.4571 -26.5026 -31.8766 -32.4993 -26.5047 -43.8765 -27.6993 -42.5047 -43.8905 
-27.6993 -30.5047 -43.8927 -27.6993 -31.3047 -43.8925 -27.6572 -31.3026 -31.8926 
-27.6572 -41.7026 -31.8907 -27.6993 -41.7047 -43.8906 -47.636 -42.5015 -25.8204 
-47.636 -30.5015 -25.8226 -43.636 -46.5015 -25.8337 -31.6361 -46.5015 -25.8758 
-42.8571 -0.00257 -31.8449 -32.4571 -0.00257 -31.8814 -32.4993 -0.00474 -43.8813 
-42.8992 -0.00474 -43.8448 -1.15733 -31.3026 -31.9856 -1.15733 -41.7026 -31.9837 
-1.19946 -31.3047 -43.9855 -1.19945 -41.7047 -43.9837 -31.6361 -55.5015 -25.8742 
-47.636 -55.5015 -25.818 -56.6359 -46.5015 -25.7881 -56.6359 -30.5015 -25.791 
-56.6991 -30.5047 -43.7909 -47.6992 -30.5047 -43.8224 -56.6991 -46.5047 -43.788 
-31.6992 -46.5047 -43.8757 -31.6992 -55.5047 -43.8741 -47.6992 -55.5047 -43.8179 
-44.9789 -46.1873 27.6713 -46.2766 -45.3202 27.6757 -47.1437 -44.0225 27.6785 
-47.4482 -39.4918 27.6787 -47.4482 -36.4918 27.6782 -47.4482 -33.4918 27.6776 
-47.4482 -27.4418 27.6765 -47.4482 -24.3918 27.676 -47.4482 -21.3418 27.6754 
-47.4482 -18.2918 27.6749 -47.4482 -15.2418 27.6743 -47.4482 -12.1918 27.6738 
-47.4482 -9.1418 27.6732 -47.4482 -6.0918 27.6727 -47.4482 -3.0418 27.6721 
-47.4482 0.0082 27.6716 -47.4482 3.0582 27.671 -47.4482 6.1082 27.6705 
-47.4482 9.1582 27.6699 -47.4482 12.2082 27.6694 -47.4482 15.2582 27.6688 
-47.4482 18.3082 27.6683 -47.4482 21.3582 27.6677 -47.4482 24.4082 27.6672 
-47.4482 27.4582 27.6666 -47.4482 33.5082 27.6655 -47.4482 36.5082 27.665 
-47.4482 39.5082 27.6644 -47.1437 44.0389 27.6625 -46.2767 45.3366 27.6593 
-44.979 46.2037 27.6546 -40.4483 46.5082 27.6386 -37.4483 46.5082 27.6281 
-34.4483 46.5082 27.6175 -28.3983 46.5082 27.5963 -25.3484 46.5082 27.5856 
-22.2984 46.5082 27.5749 -19.2484 46.5082 27.5642 -16.1984 46.5082 27.5535 
-13.1484 46.5082 27.5428 -10.0985 46.5082 27.5321 -7.04849 46.5082 27.5214 
-3.99851 46.5082 27.5107 -0.94853 46.5082 27.4999 2.10146 46.5082 27.4892 
5.15144 46.5082 27.4785 8.20142 46.5082 27.4678 11.2514 46.5082 27.4571 
14.3014 46.5082 27.4464 17.3514 46.5082 27.4357 20.4013 46.5082 27.425 
23.4513 46.5082 27.4143 26.5013 46.5082 27.4036 32.5513 46.5082 27.3824 
35.5513 46.5082 27.3718 38.5512 46.5082 27.3613 43.0819 46.2037 27.3454 
44.3796 45.3366 27.341 45.2467 44.0389 27.3382 45.5512 39.5082 27.338 
45.5512 36.5082 27.3385 45.5512 33.5082 27.3391 45.5512 27.4582 27.3402 
45.5512 24.4082 27.3407 45.5512 21.3582 27.3413 45.5512 18.3082 27.3418 
45.5512 15.2582 27.3424 45.5512 12.2082 27.3429 45.5512 9.1582 27.3435 
45.5512 6.1082 27.344 45.5512 3.0582 27.3446 45.5512 0.0082 27.3451 
45.5512 -3.0418 27.3457 45.5512 -6.0918 27.3462 45.5512 -9.1418 27.3468 
45.5512 -12.1918 27.3473 45.5512 -15.2418 27.3479 45.5512 -18.2918 27.3484 
45.5512 -21.3418 27.349 45.5512 -24.3918 27.3496 45.5512 -27.4418 27.3501 
45.5512 -33.4918 27.3512 45.5512 -36.4918 27.3517 45.5512 -39.4918 27.3523 
45.2468 -44.0225 27.3542 44.3797 -45.3202 27.3575 43.082 -46.1873 27.3622 
38.5513 -46.4918 27.3781 35.5513 -46.4918 27.3887 32.5513 -46.4918 27.3992 
26.5014 -46.4918 27.4204 23.4514 -46.4918 27.4311 20.4014 -46.4918 27.4418 
17.3514 -46.4918 27.4525 14.3014 -46.4918 27.4632 11.2514 -46.4918 27.4739 
8.20148 -46.4918 27.4846 5.15149 -46.4918 27.4954 2.10151 -46.4918 27.5061 
-0.94847 -46.4918 27.5168 -3.99845 -46.4918 27.5275 -7.04843 -46.4918 27.5382 
-10.0984 -46.4918 27.5489 -13.1484 -46.4918 27.5596 -16.1984 -46.4918 27.5703 
-19.2484 -46.4918 27.581 -22.2983 -46.4918 27.5917 -25.3483 -46.4918 27.6024 
-28.3983 -46.4918 27.6131 -34.4482 -46.4918 27.6344 -37.4482 -46.4918 27.6449 
-40.4482 -46.4918 27.6554 29.5291 46.507 21.0596 29.5402 46.5076 24.2262 
29.4548 46.5032 -0.10695 29.4653 46.5038 2.89303 29.4758 46.5043 5.89301 
29.4863 46.5048 8.893 29.4969 46.5054 11.893 29.5074 46.5059 14.893 
32.4442 46.5027 -3.11746 35.4442 46.5027 -3.12799 38.4442 46.5027 -3.13852 
41.4547 46.5032 -0.14907 41.4652 46.5038 2.85091 41.4757 46.5043 5.85089 
41.4863 46.5048 8.85087 41.4968 46.5054 11.8509 41.5073 46.5059 14.8508 
41.529 46.507 21.0175 41.5401 46.5076 24.1841 -31.4706 46.507 21.2737 
-31.4594 46.5076 24.4403 26.468 46.5065 17.9037 23.418 46.5065 17.9144 
20.368 46.5065 17.9251 17.318 46.5065 17.9358 14.268 46.5065 17.9465 
11.2181 46.5065 17.9572 8.16807 46.5065 17.9679 5.11809 46.5065 17.9786 
2.06811 46.5065 17.9893 -0.98187 46.5065 18 -4.03185 46.5065 18.0107 
-7.08183 46.5065 18.0214 -10.1318 46.5065 18.0321 -13.1818 46.5065 18.0428 
[...]
CELL_DATA 12638
SCALARS cell_scalars float
LOOKUP_TABLE default
-9577.3 -9311.8 -9570.3 -9592.1 -9259.9 -9601.6 -9607.9 -9177.6 -9394.1 
-9070.5 -9389.3 -9065.8 -9369.1 -9068.4 -9380.7 -9079.2 -9378.1 -9090.1 
-9398.3 -9086.8 -9403.4 -9074 -9385.1 -9048 -9341.1 -9005.7 -9321.9 
-8965.6 -9295.9 -8945 -9257.1 -8887.5 -9227.7 -8862.5 -9192.1 -8838.1 
-9167.5 -8796.3 -9124.4 -8763.2 -9115.9 -8717.3 -9094.7 -8682 -9062.2 
-8649.6 -9039.7 -8632.2 -9018 -8590.9 -8974.1 -8546.6 -8956.5 -8509.2 
-8926.8 -8478.7 -8889.7 -8437.8 -8854.7 -8386.7 -8847.5 -8429 -8897.2 
-8572.7 -9225.8 -9169.7 -8729.2 -9139.8 -9069.3 -8557.1 -8976.1 -8501.8 
-8915.5 -8396.4 -8885.9 -8446.8 -8882.3 -8380.3 -8871.1 -8413.8 -8851.7 
-8359.5 -8826.3 -8343.2 -8839.2 -8360.7 -8809.9 -8356 -8811.7 -8354.5 
-8852.7 -8339.9 -8821.9 -8331.7 -8826.8 -8353.7 -8806.3 -8337.9 -8815.7 
-8332.6 -8816.9 -8328.7 -8829.3 -8349.5 -8823.9 -8335.4 -8828.1 -8348.5 
-8812.7 -8324.8 -8799.8 -8329.4 -8806.7 -8355.5 -8815.4 -8347.4 -8808.1 
-8321 -8815.3 -8320.5 -8816.5 -8373.2 -8832.3 -8382.4 -8879.4 -8481.7 
-8977.3 -9094.4 -8687.2 -9157.3 -9184.4 -8557.3 -8886.4 -8395.9 -8814.3 
-8393.5 -8835.7 -8405.4 -8834.9 -8450.1 -8877.9 -8488 -8924 -8539.9 
-8958.4 -8568.8 -8959 -8579.8 -8984.5 -8601.7 -9033.4 -8630 -9073.6 
-8671.3 -9083.2 -8721.9 -9091.8 -8736 -9123.7 -8759.1 -9147 -8810.1 
-9170.7 -8845.8 -9200.7 -8890.6 -9242.4 -8911.7 -9267.5 -8943.9 -9294.2 
-8976.3 -9333.7 -9012.5 -9337.6 -9053.1 -9379.5 -9101.9 -9369.4 -9066 
-9376.9 -9042.7 -9346 -9035 -9339.6 -9061.3 -9405.6 -9193.8 -9596.2 
-9562.9 -9292.9 -9549.5 -9583.7 -9229.1 -9565.1 -9080 -9433.7 -9067.7 
-9449.7 -9039.5 -9419 -9034.1 -9402.8 -9006.4 -9395.5 -9014.4 -9418.3 
-9054.6 -9410.9 -9046 -9436.4 -9046.8 -9415.4 -9042.4 -9407.2 -9047.8 
-9399.9 -9063.6 -9400.9 -9035.5 -9408.7 -9051.4 -9430.9 -9042.2 -9409.5 
-9035.2 -9400.6 -9039.2 -9384.1 -9031.4 -9387.4 -9012.4 -9405.1 -9015.7 
-9412.7 -9014.7 -9397.8 -8983.7 -9399.2 -8998.5 -9384.7 -8993 -9404.7 
-9001.2 -9437.8 -9005.7 -9438.2 -9086.1 -9000.3 -8921.7 -8911.2 -8887.1 
-8804.1 -8788.2 -8146.7 -8226.2 -8136.9 -8087 -8054.3 -8151.5 -8172.5 
-8090.4 -8050.4 -8019.9 -8797.3 -8762.4 -8772.6 -8723.6 -8760.5 -8729.3 
-8804.4 -8774.5 -8840.4 -8784.6 -8844.3 -8810 -8802.6 -8807.5 -8769.6 
-8771 -8734.1 -8730.6 -8703.9 -8691.2 -8664.5 -8667.6 -8619.2 -8648.4 
-8580.6 -8600.7 -8525.6 -8557.3 -8505.9 -8513.2 -8481.3 -8492.3 -8437.3 
-8439.5 -8399.9 -8408.8 -8358.6 -8355.7 -8316.4 -8328 -8308.9 -8278.1 
-8254.4 -8242.3 -8194.8 -8153.8 -8144.5 -8113.2 -8099.4 -8046.6 -8017.1 
-8026.9 -8883.8 -8843.7 -8843.3 -8754.1 -8739.9 -8780.7 -8740.2 -8798.2 
-8739.7 -8773.5 -8768.5 -8768.6 -8754 -8761.1 -8765.9 -8772.3 -8718.6 
-8752.1 -8766.9 -8769.6 -8709.6 -8751 -8745.7 -8782.1 -8721.1 -8773.7 
-8711 -8757 -8732.7 -8765.1 -8730.3 -8750.9 -8741.9 -8750.2 -8734.2 
-8784.1 -8731.4 -8774.8 -8744.8 -8769.9 -8749.2 -8752.5 -8776.1 -8752.6 
-8740.2 -8777.6 -8750.9 -8747.3 -8723.6 -8747.8 -8734.7 -8726.4 -8715.1 
-8034.7 -8026.5 -8040.2 -7982.6 -8032.1 -7966.5 -8092.9 -7983 -8076.3 
-8067.2 -8068.5 -8021.7 -8045.4 -8051.9 -8044.6 -7991.5 -8044.6 -7987.7 
-8057.5 -7997.1 -8031.5 -8021 -8037.6 -8021.1 -8026.1 -8014 -8034.3 
-8019.3 -8034.1 -8012.5 -8035.7 -8032 -8036.6 -8024.6 -8028.6 -8020.1 
-8026.9 -8019 -8032.9 -8002.9 -8068.9 -8038.4 -8049.9 -8011.7 -7993.1 
-7976.9 -7975.5 -7988.2 -7965.4 -7928.8 -7983.9 -7924.9 -8079 -8044.2 
-8096.4 -8045.9 -8154.5 -8093 -8204.4 -8147.3 -8248.7 -8196.4 -8268.8 
-8241.8 -8356.4 -8309.7 -8376.5 -8334.3 -8408.5 -8376.1 -8461.9 -8425.7 
-8499.8 -8458.6 -8536 -8499.4 -8568.2 -8531 -8610.3 -8557.6 -8647.2 
-8611.6 -8684.8 -8659 -8722.5 -8692.5 -8763.4 -8732.2 -8784.2 -8753.8 
-8867.8 -8803.1 -8840.5 -8825.9 -8831.4 -8811.3 -8834.4 -8800.9 -8834.9 
-8812.1 -8804.5 -8788.2 -8792.5 -8762.1 -8762.6 -8723.5 -8009.2 -8719.9 
-7977.4 -7934.7 -8756.9 -7973.1 -8787.6 -8708.8 -8697.7 -8743.6 -8698.5 
-7986.9 -7998.3 -7984.9 -7982.7 -8739.3 -8714.6 -8002.6 -7989.2 -8724.3 
-8727.4 -8784.1 -8746 -8078.6 -8022.5 -8784.6 -8765.4 -8747.2 -8756.5 
-8740.9 -8769.5 -8716.6 -8726.2 -8712.3 -8724.1 -8666.6 -8662.2 -8647 
-8635.2 -8605.2 -8607 -8558.1 -8545.5 -8509.8 -8496 -8470 -8463.9 
-8437.2 -8424.6 -8403.7 -8394.4 -8358.3 -8353.8 -8315.5 -8319.8 -8271.9 
-8263.5 -8208.2 -8217.1 -8157.9 -8174.8 -8104.6 -8098.8 -8050.7 -8054.5 
-8042 -8045.1 -8117.4 -8090.3 -8184.2 -8128.2 -8242.7 -8208.3 -8295 
-8252.5 -8327.2 -8278 -8373.4 -8329.2 -8416.7 -8369.8 -8464.6 -8425 
-8492 -8447.6 -8533.1 -8497.3 -8567.3 -8526.4 -8599.6 -8578.3 -8649.6 
-8615.5 -8702.5 -8645.1 -8730.4 -8674.1 -8753 -8713.2 -8770.2 -8756.7 
-8797.6 -8775.2 -8784.1 -8817.1 -8754.2 -8757.7 -8720.7 -8717.9 -8769.3 
-8728.2 -7953.4 -7991.5 -8700.1 -8692.9 -8696.6 -8708 -8698.9 -8681 
-8734.1 -8700.9 -8719.2 -8704.3 -8792.1 -8750.2 -8752.1 -8790.1 -8766.9 
-8794.6 -8773.1 -8774.8 -8754.2 -8766.2 -8767.1 -8782.4 -8756.9 -8774 
-8762.1 -8785.7 -8765.7 -8780.8 -8766.7 -8795.1 -8763 -8793.4 -8778.4 
-8790.9 -8781.5 -8795.4 -8794.7 -8791.2 -8786.5 -8784.5 -8788.9 -8773.9 
-8772.3 -8772.5 -8679.5 -8746.4 -8667 -8660.3 -8706.8 -8672.6 -7933.5 
-7965.9 -7982.9 -7940.3 -7953.5 -7966 -7989.6 -8000 -8002.2 -7964.1 
-8035 -8041.5 -8043.8 -8035.5 -8007.3 -8066.3 -8041.8 -8066.6 -8021.4 
-8062.2 -8031.1 -8046.1 -8027 -8040.1 -8025.9 -8039 -8028.8 -8011.4 
-8034.5 -8018.1 -8031.7 -8021.7 -8022.7 -8023 -8015.6 -8014 -8008.6 
-7993.4 -7953.1 -7970 -7954.3 -7937 -7937.5 -7926.2 -7969.6 -7961.1 
-7946.3 -7945.4 -7924.1 -7922.9 -7944.2 -8683.1 -8698.8 -8738 -8710.2 
-8708.5 -8709 -7926.9 -7925.7 -7970.7 -7915.6 -7941.4 -7991.9 -7949.5 
-7970.4 -7963.6 -8036.2 -7961.1 -8682.8 -8690.3 -8677.7 -8690.7 -8694.2 
-8733.4 -8713 -8744 -8051.8 -8033.1 -8674.9 -8702.6 -7991.5 -7984 
-8757.3 -8720.9 -8100 -8080.9 -8705.5 -8714.7 -8761 -8774.3 -8724.4 
-8757.7 -8701.8 -8709.1 -8620.6 -8648.9 -8580.3 -8616 -8559 -8579.3 
-8515.9 -8527.7 -8475.9 -8496.2 -8426.4 -8459.3 -8389.7 -8407.7 -8345 
-8378 -8307.1 -8346.6 -8291.3 -8317.9 -8236.7 -8259.4 -8188.2 -8218.1 
-8192 -8211.2 -8159.3 -8196.7 -8055 -8126.5 -8002.6 -8016.2 -7969.4 
-7984 -8154.5 -8137.6 -8209.3 -8179.3 -8257.1 -8242.7 -8285.7 -8289.6 
-8321.7 -8321.2 -8373.3 -8354 -8420 -8400.2 -8452.5 -8426.1 -8489.1 
-8451.6 -8522 -8504.6 -8572.4 -8539.1 -8601.2 -8593.5 -8632.3 -8637.5 
-8687.4 -8679.7 -8726.3 -8688.9 -8799.3 -8770.3 -8821.6 -8827.9 -8788 
-8811.2 -8721.5 -8745.3 -8678.1 -8713.4 -8681.4 -8686.2 -8739.3 -8713.9 
-8704.7 -8750.4 -8775.7 -8752.9 -8807.6 -8772 -8818.7 -8787.6 -8805.6 
-8821.1 -8800.2 -8831.4 -8808.7 -8823.6 -8806.7 -8809.9 -8802.1 -8816 
-8798.9 -8792.5 -8798.6 -8780.2 -8809.1 -8783.9 -8774.2 -8779.7 -8734.1 
-8738.7 -8738.7 -8728.1 -8715.6 -8737.5 -8729.1 -8713.2 -8690.9 -8718.2 
-8716 -8689.5 -8663.6 -8693.1 -8008.7 -7981.3 -8008.6 -8021.1 -8006.8 
-8024.4 -8032.5 -8015.9 -8065.3 -8053.2 -8062.6 -8009.4 -8055.7 -8042.6 
-8037 -8034.6 -8032.1 -8024 -8020.8 -8020.1 -8010.2 -8015.6 -8000.7 
-8007.7 -7991.7 -8012 -7961 -8008.5 -7968.4 -7993.4 -7996.4 -7982.3 
-8000.4 -8018.5 -7993.9 -8039.4 -7904.9 -7987.6 -7925.7 -7937.1 -7914.4 
-7957.8 -7907.3 -7921.7 -8719.4 -8718.6 -8687 -7889 -7919.7 -8679.4 
-8712.7 -8662.2 -7954.1 -7982.7 -8700.4 -8689.3 -7938.3 -7931.2 -7964.5 
-7982.3 -7971.9 -8716.7 -8711.4 -8704.2 -8726 -8700.3 -8768.1 -8767.2 
-8736 -8764.4 -8050.5 -8010.8 -8134.5 -8049.6 -8158.3 -8135.6 -8691.5 
-8695.9 -7934.2 -7959 -7967.9 -7942.4 -8723.7 -8704.5 -7985.6 -7959.4 
-8743.2 -8722.4 -8075.6 -7999.6 -8726.5 -8713.9 -8749 -8754.6 -8217 
-8172.1 -7977.2 -7994.1 -8035.2 -8014.6 -8056.9 -8022.6 -8062.7 -8046 
-8073.6 -8079.4 -8067.9 -8104.3 -8047.5 -8080.2 -8001.9 -8041 -8016.6 
-8019.3 -8022.4 -8032.7 -8029 -8040.9 -8015.2 -8031 -8026.7 -8032.1 
-8009.1 -8068.4 -8030.1 -8072.8 -8705.9 -8738.2 -8790.4 -8795.6 -8810 
-8803.8 -8805.7 -8817.7 -8802.1 -8811.2 -8745.9 -8781.7 -8742.9 -8755 
-8747.8 -8740.4 -8742.2 -8753.1 -8768.5 -8782.4 -8764.2 -8756.8 -8793.7 
-8776.1 -8796 -8784 -8802.4 -8765.6 -8776 -8783.8 -8075.5 -8059.2 
-8142 -8104.2 -8240.9 -8164 -8303 -8261.7 -8326.5 -8313 -8365.8 
-8350.7 -8407 -8412.6 -8424.2 -8408.2 -8452.2 -8444.2 -8488.2 -8473 
-8536 -8508.9 -8547.5 -8554.6 -8599.9 -8601.1 -8624.4 -8634.2 -8642.1 
-8651.2 -8698.7 -8688.6 -8803.4 -8768 -8790 -8844.3 -8788.9 -8758.6 
-8753.6 -8777.1 -8732.6 -8758.3 -8687.8 -8731 -8607.1 -8648.7 -8561.2 
-8598.8 -8522.7 -8555.5 -8488 -8513.7 -8440.1 -8487.8 -8412.7 -8446.1 
-8398 -8411.1 -8377 -8400.5 -8345.9 -8368.9 -8299.6 -8329.5 -8032.6 
-8021.2 -8758 -8756 -8058.9 -8114.3 -8776.7 -8762.4 -8017 -8046.9 
-8745.3 -8768.6 -7984.1 -8001.5 -8717.8 -8740.4 -8726.6 -8257.7 -8711.9 
-8004 -8041.2 -8055.4 -8712.4 -8692.1 -8710.9 -8727.8 -8723.9 -8720.3 
-7970.8 -7974.8 -8011.7 -7982.7 -8774 -8716.7 -8763.8 -8775.2 -8757.5 
-8095.8 -8070.4 -8150.4 -8100.6 -8209.8 -8135.6 -8737 -8755.7 -8025.5 
-8057 -8748.1 -8777 -8806 -8807.3 -8762.2 -8794.7 -8756.2 -8756 
-8765.6 -8806.8 -8773.1 -8769.3 -8776.6 -8805.6 -8772.7 -8797.7 -8813.2 
-8804.3 -8832.3 -8803.6 -8830.6 -8831.9 -8824.4 -8808.4 -8802.8 -8821 
-8787.9 -8796.6 -8781.7 -8807.7 -8774 -8744.4 -8790.9 -8774.3 -8730.8 
-8773.7 -8079.8 -8067.9 -8118 -8059.4 -8111.6 -8142.9 -8137.2 -8116.5 
-8121 -8164 -8142.4 -8152.4 -8143.1 -8133.7 -8126.4 -8162.6 -8130.8 
-8143.8 -8117.9 -8148.9 -8146.1 -8137.3 -8066.8 -8095.8 -8059.6 -8063.9 
-8038.3 -8049.8 -8010.9 -8042.7 -8011.2 -8036.2 -8028.5 -8019 -8036.4 
-8055.6 -8092.8 -8040.1 -8147.4 -8137.1 -8146.3 -8169.3 -8208.1 -8191 
-8244.3 -8206.7 -8290.2 -8267.1 -8317.4 -8285.6 -8376.2 -8326.5 -8412.5 
-8402.6 -8494.4 -8453.4 -8528.7 -8504.6 -8560.2 -8520.8 -8608.8 -8579.3 
-8667.5 -8604.5 -8697.3 -8660.3 -8695.2 -8721.9 -8770.1 -8726.3 -8785.5 
-8747 -8792.2 -8809.6 -8720.1 -8763.1 -8692.8 -8724.5 -8651.7 -8660.3 
-8637.3 -8614.7 -8608.8 -8630.4 -8608 -8599.1 -8562.1 -8570.7 -8511.1 
-8515 -8469.9 -8483.1 -8417.7 -8418.2 -8315 -8372.8 -8296 -8298.1 
-8245.6 -8270.4 -8080.5 -8757.9 -8018.9 -8041.2 -8041 -8740 -8725.9 
-8742.1 -8244.5 -8210.4 -8244.4 -8725.7 -8737.5 -8773.2 -8767.4 -8789.4 
-8772.6 -8775.3 -8102.3 -8087 -8124.3 -8167.7 -8141.8 -8795.3 -8768.5 
-8839.7 -8837.8 -8822.7 -8819.6 -8843.3 -8830.9 -8826 -8833.5 -8863 
-8861.1 -8845.9 -8838.6 -8857.8 -8836 -8824.4 -8841.3 -8822.6 -8813.6 
-8783.2 -8785.8 -8789.6 -8781.9 -8832.5 -8822.9 -8823.9 -8819.6 -8764.8 
-8814.8 -8786.2 -8785.9 -8790.7 -8791.9 -8108 -8121.8 -8109.6 -8114.2 
-8170.3 -8150 -8100.5 -8145.8 -8076.3 -8088.4 -8077.7 -8112 -8098.9 
-8089.7 -8077.2 -8091.9 -8082.8 -8079.5 -8078.9 -8093.4 -8087.4 -8104.7 
-8090.5 -8090.9 -8123.3 -8145.5 -8130.7 -8137.1 -8158.4 -8159.5 -8111.4 
-8140 -8080.3 -8106.4 -8102.8 -8098.2 -8189.3 -8111.3 -8247.3 -8205.3 
-8280.1 -8271.5 -8320.1 -8312 -8326.5 -8335.1 -8362.3 -8367.7 -8388.4 
-8371.5 -8436.9 -8410.2 -8464 -8429.6 -8509.1 -8461.7 -8542.3 -8521.5 
-8560.5 -8544.7 -8620.2 -8601.5 -8678.9 -8633.4 -8773.8 -8773.8 -8803.4 
-8771.3 -8785.3 -8758.6 -8758.3 -8754.2 -8746.5 -8722.1 -8727.2 -8656.4 
-8700.5 -8590.7 -8622.9 -8561.6 -8580.5 -8503.2 -8523.3 -8484.6 -8466.8 
-8421.8 -8453.7 -8392 -8407.6 -8362.6 -8382.7 -8336.3 -8370 -8285.4 
-8321.9 -8780.5 -8765 -8072.6 -8096.1 -8784 -8781.4 -8794.3 -8794.3 
-8793.7 -8793.4 -8782.1 -8820.5 -8813.5 -8141.1 -8164.6 -8828.9 -8832.2 
-8214.7 -8202.3 -8249.6 -8231.4 -8276.6 -8839.6 -8817.5 -8791.6 -8780.9 
-8812.2 -8845 -8848.6 -8827.2 -8808 -8834.9 -8794.3 -8804.3 -8788.1 
-8808.2 -8772.9 -8785.5 -8778.9 -8775.8 -8770 -8734.1 -8819.5 -8831.8 
-8706 -8721.4 -8759.1 -8718.7 -8793 -8843.5 -8823.3 -8790.3 -8847.9 
-8829.9 -8102.9 -8108.3 -8146.7 -8151.2 -8124.6 -8140.9 -8177.6 -8136.2 
-8124.9 -8161.7 -8091.2 -8092.6 -8157.2 -8163.4 -8186.2 -8188.5 -8149.7 
-8185.8 -8148.9 -8155 -8147.6 -8187.4 -8155.4 -8149.3 -8148.8 -8163 
-8126.7 -8184.2 -8116.1 -8149.7 -8125.2 -8154.5 -8153.1 -8153.7 -8162.2 
-8164.8 -8218.7 -8231.4 -8257.8 -8239.7 -8282.1 -8246.6 -8369.6 -8352.1 
-8397.7 -8380.4 -8471.9 -8438.5 -8453.1 -8460.4 -8539 -8533.8 -8548.3 
-8577.2 -8589.4 -8580.4 -8647.2 -8622.4 -8686.2 -8683.3 -8789.7 -8819.2 
-8748.8 -8792.5 -8684 -8717.4 -8669.4 -8689.7 -8638.3 -8652.7 -8630.2 
-8643.4 -8557.9 -8611.5 -8542.5 -8579.9 -8490.6 -8521.2 -8455.5 -8473.9 
-8422.4 -8450.6 -8401 -8400.1 -8328.4 -8343.5 -8818.6 -8748.8 -8166.2 
-8819 -8798.7 -8846.1 -8838.2 -8808.7 -8804 -8756.5 -8802.8 -8202.6 
-8208.7 -8141.9 -8170.6 -8129.5 -8753.5 -8757.4 -8684.3 -8719.7 -8648.9 
-8203.8 -8179.5 -8231 -8221.5 -8298.8 -8261.6 -8307.9 -8780.9 -8792 
-8111 -8189.2 -8096.4 -8105.4 -8193.3 -8149.9 -8181.1 -8188.3 -8145.9 
-8161.9 -8157.3 -8156.3 -8184.9 -8182.9 -8194.4 -8184.9 -8208.4 -8213.2 
-8205.4 -8209.2 -8204 -8220.7 -8225.9 -8216.4 -8186.2 -8221.5 -8206.8 
-8187.5 -8265.3 -8254.7 -8292 -8285.9 -8330.6 -8302 -8352.6 -8353.3 
-8395.2 -8360.3 -8417.4 -8415.9 -8509.9 -8453.8 -8534.5 -8507.8 -8568.4 
-8535.9 -8612.9 -8581.3 -8650.6 -8626.8 -8700.4 -8730.5 -8700.8 -8700.4 
-8651.9 -8681.8 -8620.6 -8609.6 -8558.4 -8598.5 -8552.2 -8536.9 -8472.5 
-8509.3 -8465 -8461.7 -8416.9 -8435.1 -8345.9 -8380.2 -8304.7 -8320.6 
-8856.7 -8826.7 -8830.7 -8827.8 -8827.3 -8823.6 -8786.1 -8794.6 -8785.6 
-8783.9 -8756.1 -8776.4 -8765.5 -8766.3 -8726.4 -8768.1 -8793 -8746.8 
-8830.7 -8759.4 -8839.5 -8817.5 -8829.6 -8818.7 -8172.8 -8778 -8810 
-8816.5 -8781 -8214.8 -8196.7 -8255 -8211.4 -8220.4 -8188.3 -8241.6 
-8750.8 -8753.8 -8279.2 -8290.8 -8238.4 -8197.5 -8708.4 -8741.9 -8188.2 
-8219.3 -8317.6 -8289.8 -8687.4 -8696.6 -8159.6 -8190 -8777 -8790.7 
-8223.5 -8220.9 -8225.9 -8242 -8215 -8249 -8192.9 -8203.5 -8196.2 
-8224.6 -8175.2 -8170.7 -8192.7 -8197.5 -8184.8 -8200.9 -8237 -8220.8 
-8232.5 -8259.5 -8692.8 -8688.7 -8728.2 -8719.9 -8733.3 -8720 -8783.5 
-8794.3 -8784.5 -8818.8 -8345.4 -8320.4 -8430.9 -8382.4 -8433 -8454.2 
-8447.4 -8437.9 -8465.2 -8478.9 -8498 -8505.8 -8561.1 -8555.6 -8592.5 
-8590 -8641.2 -8680.5 -8581.6 -8607.1 -8576.7 -8581.9 -8532.1 -8540.1 
-8504.5 -8533 -8437 -8486.8 -8409.5 -8444 -8391.5 -8430.6 -8277.8 
-8277.8 -8265.8 -8252.7 -8808.8 -8777.1 -8823.6 -8827.5 -8820.4 -8823.1 
-8821 -8825.5 -8815.1 -8803.1 -8799.8 -8822 -8798.9 -8784.6 -8731.4 
-8758.4 -8744.1 -8758.5 -8753.7 -8766.8 -8260 -8757.2 -8224.6 -8239.6 
-8252.5 -8300.9 -8265.2 -8287.8 -8237.8 -8245.4 -8230.9 -8295.9 -8271.9 
-8320.9 -8305.7 -8344.1 -8760.4 -8758.6 -8739.1 -8732.8 -8687.8 -8613.7 
-8649.8 -8693.7 -8632.1 -8734.2 -8681.9 -8748.9 -8758.1 -8768 -8743.2 
-8755.4 -8738 -8761.6 -8748.6 -8735.3 -8713.6 -8727.5 -8685.4 -8723 
-8710.6 -8724.6 -8705.1 -8725.7 -8707.4 -8735.8 -8711.9 -8765.9 -8745.5 
-8723.6 -8743 -8327.2 -8304.7 -8327.4 -8332.9 -8415.2 -8344.9 -8478.1 
-8421.9 -8544.2 -8505.3 -8571.5 -8552.3 -8630.9 -8593.3 -8656 -8647.9 
-8656.3 -8674.2 -8643.4 -8628.2 -8535.3 -8614.4 -8501.2 -8504.7 -8471.9 
-8478.7 -8440.6 -8464.6 -8391.4 -8387.4 -8395.4 -8368.2 -8261.5 -8229.1 
-8201.6 -8252.3 -8246.5 -8223.9 -8262.3 -8245.3 -8265.2 -8234.5 -8286.1 
-8268.1 -8265.5 -8261 -8288.7 -8300.9 -8234 -8288.8 -8269 -8233.8 
-8246.6 -8249.4 -8268.3 -8274.8 -8315.2 -8280.2 -8283 -8280.2 -8255.5 
-8311.5 -8301.3 -8700.1 -8754.8 -8749.6 -8725.8 -8729.7 -8702 -8697.1 
-8302.7 -8339.4 -8370.8 -8737.8 -8712.1 -8688.8 -8668.5 -8721.8 -8621.9 
-8736.7 -8734.7 -8710.7 -8701.2 -8700.4 -8670 -8738.3 -8738.5 -8735.2 
-8734 -8726.1 -8730.1 -8732.2 -8720.9 -8682.6 -8722.2 -8690.4 -8681.5 
-8390.9 -8333.1 -8267.1 -8280.3 -8267.5 -8284.6 -8246.7 -8299.1 -8232 
-8261.7 -8239.6 -8243.5 -8240.6 -8253.9 -8258.8 -8278.6 -8294.5 -8265.9 
-8298.9 -8331.5 -8297.5 -8297.7 -8386.2 -8374 -8397.4 -8414.3 -8457.6 
-8413.5 -8492.2 -8452.4 -8543.1 -8504.6 -8556.8 -8560.5 -8633.9 -8646.5 
-8661.6 -8583.2 -8599.8 -8583.2 -8587.8 -8521.3 -8527.3 -8526.3 -8537.9 
-8437 -8470.8 -8398.3 -8442.6 -8701.2 -8723.2 -8322.6 -8287 -8314.3 
-8336.9 -8687.3 -8706.1 -8694.9 -8671.9 -8642 -8643.8 -8600.4 -8621.1 
-8577.3 -8587.8 -8311.5 -8335.5 -8307.1 -8304.3 -8281 -8315.9 -8532.5 
-8539.1 -8348.1 -8335.7 -8663.2 -8683.9 -8642.6 -8659.6 -8585.3 -8702.6 
-8656.9 -8335.6 -8318.8 -8381.1 -8317.1 -8322.1 -8324.4 -8335.7 -8348.5 
-8347.8 -8351.5 -8348.8 -8343.1 -8360.1 -8327 -8340.6 -8508 -8513.8 
-8403.7 -8453.6 -8373.8 -8399.9 -8733.3 -8701.3 -8648 -8674.5 -8682.1 
-8659.2 -8683.5 -8659.8 -8695.4 -8672.8 -8680.6 -8664.8 -8373.2 -8351.3 
-8433.1 -8437.6 -8484.3 -8445.7 -8457 -8487.4 -8547.3 -8519.2 -8558.5 
-8549 -8347 -8332.8 -8325.8 -8329.1 -8655.5 -8666.1 -8635.4 -8375.7 
-8362.4 -8357.1 -8346 -8373.7 -8315 -8354.7 -8324.5 -8345.4 -8310 
-8367.2 -8674.9 -8647.1 -8612.3 -8628.9 -8613.5 -8589 -8577.3 -8597.8 
-8627 -8570.7 -8374.3 -8366 -8291.4 -8315.3 -8644.9 -8634.9 -8320.5 
-8321.5 -8652.7 -8623.8 -8665.7 -8633.8 -8601.8 -8644.7 -8615.2 -8610.2 
-8662.5 -8644 -8385.8 -8374.4 -8467.2 -8442.1 -8533.9 -8489.6 -8563.1 
-8523.4 -8509.6 -8546.5 -8484.4 -8493.2 -8474.2 -8479.3 -8603.3 -8599 
-8391.9 -8406.4 -8421.6 -8411.5 -8638.6 -8628.1 -8637.9 -8411.4 -8408.1 
-8438.9 -8577.2 -8578.1 -8521.1 -8552.9 -8347.6 -8379.9 -8373.4 -8667.3 
-8591.5 -8483.8 -8490.7 -8608.8 -8630.4 -8631.1 -8582.3 -8512.9 -8515.1 
-8468.8 -8473 -8640.5 -8627.5 -8610.8 -8612.6 -8311.8 -8336.6 -8303.4 
-8522.5 -8498.2 -8592 -8569.3 -8460.3 -8502.1 -8402.5 -8398.7 -8408 
-8392 -8406 -8614.1 -8615.7 -8597.6 -8566.5 -8579.3 -8434.3 -8440.4 
-8413 -8412.7 -8551.9 -8580.8 -8562.2 -8573.7 -8533.4 -8552.8 -8532.5 
-8393.8 -8384.9 -8411.2 -8358.7 -8411.3 -8569.2 -8577.9 -8576.5 -8574.4 
-8582.2 -8573.8 -8556.8 -8556.7 -8452.5 -8415.3 -8524.7 -8459 -8471.6 
-8503.8 -8506.4 -8515.6 -8389.6 -8401.4 -8589.6 -8373.6 -8524.7 -8555.1 
-8517.6 -8420.7 -8435.3 -8451.1 -8461.5 -8410.8 -8409.5 -8536.6 -8543.9 
-8490 -8369.5 -8402.6 -8408.2 -8566.7 -8549.4 -8563.5 -8530.1 -8442.6 
-8418.1 -8471 -8493.8 -8555.4 -8448.2 -8545.2 -8512.7 -8471.2 -8484 
-8520.8 -8516.9 -8519.1 -8506 -8450.2 -8499.9 -8431.3 -8425.8 -8463.4 
-8457.1 -8496.3 -8486.1 -8491.9 -1131.3 -3793.3 -5727.7 -7133 -8691.5 
-8790.1 -8967 -9210 -9482.2 -9437.6 -9483.6 -9585.5 -9730.1 -9687.5 
-9702.1 -9752.4 -9851.7 -9824.9 -9827.8 -9850.9 -9926.5 -9909.9 -9909.3 
-9921.1 -9978.1 -9962.9 -9961.7 -9978.7 -10012 -9998.8 -9997.3 -10018 
-10043 -10002 -9996.7 -10000 -9641.9 -9614.8 -9616.2 -9625.9 -9643.4 
-10021 -10153 -9641.7 -10057 -10389 -9657.7 -10069 -10435 -9660.3 
-10064 -10457 -9659.9 -10065 -10458 -9682.1 -10062 -10454 -9690 
-10067 -10448 -9698.8 -10063 -10436 -9700.1 -10067 -10418 -9710.7 
-10072 -10437 -9718.6 -10074 -10433 -9729.2 -10078 -10447 -9745.3 
-10079 -10438 -9741.2 -10083 -10444 -9728.2 -10091 -10450 -9742.9 
-10100 -10450 -9748.7 -10102 -10434 -9731.9 -10095 -10437 -9748.5 
-10085 -10440 -9727.5 -10053 -10296 -9361.8 -9239 -9246.4 -9393 
-9636.3 -9562.3 -9576.1 -9679.3 -9782.3 -9741.5 -9750.2 -9802.6 -9860.3 
-9839.2 -9845.8 -9875.3 -9917.1 -9903.9 -9909.8 -9930.5 -9959.7 -9952.4 
-9957.7 -9972.8 -10010 -9997.3 -10009 -10022 -10028 -10003 -9998.6 
-10018 -10033 -10024 -10027 -10048 -9726.2 -9705.1 -9720.2 -9757.4 
-9709.9 -10080 -10048 -9885.1 -10091 -10065 -9891.9 -10106 -10051 
-9831 -10137 -10029 -9939.4 -10127 -10099 -9938.7 -10109 -10096 
-9881.3 -10054 -10042 -9961 -10016 -9985.4 22981 25802 25794 
22905 1077.1 2943.4 2914.7 1018.2 -8521.7 -8029 -8037.1 -8523.7 
-9682.7 -9589.5 -9591.3 -9684.8 -9869.5 -9835.7 -9837.2 -9873.4 -9958.6 
-9942.3 -9943.2 -9960.2 -10030 -10009 -10009 -10022 -10044 -10023 
-10023 -10034 -10024 -10016 -10019 -10036 -9676.6 -9677.4 -9680.7 
-9684.2 -9391.3 -9304 -9303.9 -9391.8 -9591.6 -9547 -9547.1 -9593.3 
-9681.3 -9656.5 -9656.7 -9683.1 -9743.7 -9728.7 -9728.9 -9744.5 -9794.5 
-9783.8 -9784.1 -9794.7 -9838.7 -9831.1 -9831.4 -9838.2 -9880.8 -9872.4 
-9872.5 -9881.1 -9924.5 -9915.5 -9915.5 -9923.9 -9967.1 -9956.8 -9957.1 
-9959.3 -9954.6 -9895.4 -9898.4 -9900.5 -9701.2 -10057 -10207 -9693.2 
-10091 -10412 -9691.3 -10109 -10447 -9697.2 -10115 -10452 -9694.2 
-10115 -10454 -9694.8 -10115 -10448 -9713 -10117 -10451 -9691.2 
-10113 -10451 -9692.3 -10112 -10448 -9689.1 -10111 -10447 -9693 