# vtk DataFile Version 4.2
vtk output
ASCII
DATASET UNSTRUCTURED_GRID
POINTS 8741 float
-51.608 -42.4655 32.4928 -51.6086 -30.4655 32.4837 -51.6115 30.5345 32.4371 
-51.6121 42.5345 32.428 -47.6204 46.5345 32.1703 -35.6448 46.5345 31.4063 
25.2315 46.5345 27.5229 37.2071 46.5345 26.759 41.1992 42.5345 26.5074 
41.1998 30.5345 26.5165 41.2028 -30.4655 26.5631 41.2034 -42.4655 26.5722 
37.2117 -46.4655 26.8299 25.236 -46.4655 27.5939 -47.6159 -46.4655 32.2412 
-35.6402 -46.4655 31.4773 24.6267 46.5272 18.0422 23.2898 46.5112 -2.9152 
35.2654 46.5112 -3.67915 36.6023 46.5272 17.2782 -36.2496 46.5272 21.9256 
-48.2252 46.5272 22.6896 -49.5621 46.5112 1.73218 -37.5865 46.5112 0.96822 
40.5944 42.5272 17.0266 -52.2169 42.5272 22.9473 39.2575 42.5112 -3.93075 
39.2581 30.5112 -3.92159 40.595 30.5273 17.0358 -52.2163 30.5273 22.9564 
-53.5532 30.5112 1.99903 -53.5538 42.5112 1.98988 40.598 -30.4727 17.0823 
-52.2134 -30.4727 23.003 39.2611 -30.4888 -3.87506 39.2616 -42.4888 -3.8659 
40.5986 -42.4727 17.0915 -52.2128 -42.4727 23.0121 -53.5497 -42.4888 2.05472 
-53.5503 -30.4888 2.04557 36.6069 -46.4727 17.3492 -48.2207 -46.4727 22.7605 
35.27 -46.4888 -3.6082 23.2943 -46.4888 -2.84425 24.6312 -46.4727 18.1131 
-36.245 -46.4727 21.9966 -37.582 -46.4888 1.03917 -49.5576 -46.4888 1.80312 
-36.246 -26.4727 21.9813 -32.2539 -30.4727 21.7297 -32.2533 -42.4727 21.7389 
20.6391 -42.4727 18.3647 20.6385 -30.4727 18.3556 24.6302 -26.4727 18.0979 
36.6059 -26.4727 17.3339 36.6033 26.5273 17.2935 24.6277 26.5273 18.0575 
20.6356 30.5273 18.3091 20.635 42.5272 18.2999 -32.2575 42.5272 21.674 
-32.2569 30.5273 21.6832 -36.2486 26.5273 21.9409 -48.2243 26.5273 22.7048 
-48.2217 -26.4727 22.7453 45.6297 30.4799 -45.4114 45.6289 46.4799 -45.4236 
36.6467 55.4799 -44.8575 20.6792 55.4799 -43.8389 20.6796 46.4799 -43.832 
16.6879 42.4799 -43.5743 16.688 41.6799 -43.5737 -9.75829 41.6799 -41.8866 
-9.75778 31.2799 -41.8787 16.6885 31.2799 -43.5658 16.6885 30.4799 -43.5652 
20.6806 26.4799 -43.8167 21.479 26.4799 -43.8677 21.4802 -0.02012 -43.8475 
31.8591 -0.02012 -44.5095 31.8579 26.4799 -44.5298 36.6479 30.4799 -44.8384 
32.6562 26.4799 -44.5807 33.8012 46.4936 -26.6325 21.8255 46.4936 -25.8685 
21.8251 55.4936 -25.8754 37.7926 55.4936 -26.894 46.7748 46.4936 -27.4601 
46.7756 30.4936 -27.4479 37.7933 42.4936 -26.8841 37.7938 30.4936 -26.8749 
23.2898 46.5112 -2.9152 19.2981 42.5112 -2.65749 19.2987 30.5112 -2.64834 
23.2907 26.5112 -2.89994 35.2664 26.5112 -3.66389 39.2581 30.5112 -3.92159 
35.2654 46.5112 -3.67915 39.2575 42.5112 -3.93075 17.4524 31.289 -31.5901 
17.4519 41.689 -31.598 -8.99383 31.289 -29.903 -8.99434 41.689 -29.911 
32.6218 26.489 -32.5541 22.2429 26.489 -31.892 32.6231 -0.01095 -32.5339 
22.2442 -0.01095 -31.8718 19.2981 42.5112 -2.65749 19.2987 30.5112 -2.64834 
23.2907 26.5112 -2.89994 35.2664 26.5112 -3.66389 -51.373 26.4799 -39.2203 
-51.3717 -0.02012 -39.2001 -40.9928 -0.02012 -39.8622 -40.994 26.4799 -39.8824 
-40.1957 26.4799 -39.9333 -36.204 30.4799 -40.191 -36.204 31.2799 -40.1916 
-9.75778 31.2799 -41.8787 -9.75829 41.6799 -41.8866 -36.2045 41.6799 -40.1996 
-36.2046 42.4799 -40.2002 -40.1967 46.4799 -39.9486 -40.1971 55.4799 -39.9554 
-56.1646 55.4799 -38.9369 -65.1459 46.4799 -38.357 -65.1452 30.4799 -38.3448 
-56.1634 30.4799 -38.9178 -52.1713 26.4799 -39.1694 -63.9992 30.4936 -20.3813 
-64 46.4936 -20.3935 -55.0187 55.4936 -20.9734 -39.0512 55.4936 -21.992 
-39.0507 46.4936 -21.9851 -51.0264 46.4936 -21.2211 -55.0181 42.4936 -20.9634 
-55.0175 30.4936 -20.9543 -37.5865 46.5112 0.96822 -33.5944 42.5112 0.71663 
-33.5938 30.5112 0.72578 -37.5855 26.5112 0.98348 -49.5612 26.5112 1.74743 
-53.5532 30.5112 1.99903 -49.5621 46.5112 1.73218 -53.5538 42.5112 1.98988 
-35.4401 31.289 -28.216 -35.4406 41.689 -28.2239 -8.99434 41.689 -29.911 
-8.99383 31.289 -29.903 -50.609 26.489 -27.2446 -40.2301 26.489 -27.9067 
-40.2288 -0.01095 -27.8865 -50.6077 -0.01095 -27.2244 -33.5944 42.5112 0.71663 
-33.5938 30.5112 0.72578 -37.5855 26.5112 0.98348 -49.5612 26.5112 1.74743 
31.8604 -26.5201 -44.4893 31.8591 -0.02012 -44.5095 21.4802 -0.02012 -43.8475 
21.4815 -26.5201 -43.8272 20.6832 -26.5201 -43.7763 16.6915 -30.5201 -43.5186 
16.6915 -31.3201 -43.518 -9.75474 -31.3201 -41.8309 -9.75423 -41.7201 -41.823 
16.692 -41.7201 -43.5101 16.6921 -42.5201 -43.5095 20.6841 -46.5201 -43.7611 
20.6846 -55.5201 -43.7542 36.6521 -55.5201 -44.7728 45.6334 -46.5201 -45.3526 
45.6326 -30.5201 -45.3648 36.6509 -30.5201 -44.7919 32.6588 -26.5201 -44.5403 
46.7786 -30.5063 -27.4014 46.7793 -46.5063 -27.3891 37.798 -55.5063 -26.8093 
21.8305 -55.5063 -25.7907 21.8301 -46.5063 -25.7976 33.8057 -46.5063 -26.5615 
37.7974 -42.5064 -26.8192 37.7968 -30.5063 -26.8284 23.2943 -46.4888 -2.84425 
19.3022 -42.4888 -2.59265 19.3016 -30.4888 -2.6018 23.2933 -26.4888 -2.85951 
35.269 -26.4888 -3.62346 39.2611 -30.4888 -3.87506 35.27 -46.4888 -3.6082 
39.2616 -42.4888 -3.8659 17.4555 -31.3109 -31.5424 17.456 -41.7109 -31.5344 
-8.99028 -41.7109 -29.8473 -8.99079 -31.3109 -29.8553 32.6244 -26.5109 -32.5137 
22.2455 -26.5109 -31.8516 22.2442 -0.01095 -31.8718 32.6231 -0.01095 -32.5339 
19.3022 -42.4888 -2.59265 19.3016 -30.4888 -2.6018 23.2933 -26.4888 -2.85951 
35.269 -26.4888 -3.62346 -49.5586 -26.4888 1.78787 -37.5829 -26.4888 1.02391 
-33.5909 -30.4888 0.77232 -33.5903 -42.4888 0.78147 -40.1931 -26.5201 -39.8929 
-52.1688 -26.5201 -39.1289 -51.3704 -26.5201 -39.1799 -50.6064 -26.5109 -27.2042 
-40.2275 -26.5109 -27.8663 -40.9915 -26.5201 -39.842 -36.2004 -42.5201 -40.1353 
-36.201 -30.5201 -40.1445 -36.201 -31.3201 -40.1439 -35.437 -31.3109 -28.1682 
-35.4365 -41.7109 -28.1603 -36.2005 -41.7201 -40.1359 -55.0139 -42.5064 -20.8986 
-55.0145 -30.5063 -20.9078 -51.0219 -46.5063 -21.1502 -39.0462 -46.5063 -21.9142 
-50.6077 -0.01095 -27.2244 -40.2288 -0.01095 -27.8865 -40.9928 -0.02012 -39.8622 
-51.3717 -0.02012 -39.2001 -8.99079 -31.3109 -29.8553 -8.99028 -41.7109 -29.8473 
-9.75474 -31.3201 -41.8309 -9.75423 -41.7201 -41.823 -39.0458 -55.5063 -21.9073 
-55.0133 -55.5063 -20.8887 -63.9955 -46.5063 -20.3226 -63.9963 -30.5063 -20.3348 
-65.1422 -30.5201 -38.2983 -56.1604 -30.5201 -38.8712 -65.1414 -46.5201 -38.2861 
-40.1921 -46.5201 -39.8776 -40.1917 -55.5201 -39.8708 -56.1592 -55.5201 -38.8522 
-49.1435 -46.161 32.3385 -50.4386 -45.2939 32.4204 -51.3041 -43.9962 32.4746 
-51.6081 -39.4655 32.4906 -51.6083 -36.4655 32.4883 -51.6084 -33.4655 32.486 
-51.6087 -27.4154 32.4814 -51.6089 -24.3654 32.479 -51.609 -21.3155 32.4767 
-51.6092 -18.2655 32.4744 -51.6093 -15.2155 32.4721 -51.6095 -12.1655 32.4697 
-51.6096 -9.11546 32.4674 -51.6097 -6.06546 32.4651 -51.6099 -3.01547 32.4627 
-51.6101 0.03453 32.4604 -51.6102 3.08453 32.4581 -51.6104 6.13453 32.4558 
-51.6105 9.18453 32.4534 -51.6106 12.2345 32.4511 -51.6108 15.2845 32.4488 
-51.6109 18.3345 32.4465 -51.6111 21.3845 32.4441 -51.6112 24.4345 32.4418 
-51.6114 27.4845 32.4395 -51.6117 33.5345 32.4349 -51.6118 36.5345 32.4326 
-51.612 39.5345 32.4303 -51.3083 44.0652 32.4075 -50.4431 45.3629 32.3513 
-49.148 46.23 32.268 -44.6265 46.5345 31.9793 -41.6326 46.5345 31.7883 
-38.6387 46.5345 31.5973 -32.601 46.5345 31.2122 -29.5571 46.5345 31.018 
-26.5133 46.5345 30.8238 -23.4695 46.5345 30.6297 -20.4257 46.5345 30.4355 
-17.3819 46.5345 30.2413 -14.3381 46.5345 30.0471 -11.2943 46.5345 29.853 
-8.25046 46.5345 29.6588 -5.20665 46.5345 29.4646 -2.16283 46.5345 29.2705 
0.88098 46.5345 29.0763 3.92479 46.5345 28.8821 6.9686 46.5345 28.688 
10.0124 46.5345 28.4938 13.0562 46.5345 28.2996 16.1 46.5345 28.1054 
19.1439 46.5345 27.9113 22.1877 46.5345 27.7171 28.2254 46.5345 27.3319 
31.2193 46.5345 27.1409 34.2132 46.5345 26.95 38.7348 46.23 26.6618 
40.0299 45.3629 26.5798 40.8953 44.0652 26.5256 41.1994 39.5345 26.5097 
41.1995 36.5345 26.5119 41.1997 33.5345 26.5142 41.2 27.4845 26.5189 
41.2001 24.4345 26.5212 41.2002 21.3845 26.5235 41.2004 18.3345 26.5258 
41.2005 15.2845 26.5282 41.2007 12.2345 26.5305 41.2008 9.18453 26.5328 
41.201 6.13453 26.5351 41.2011 3.08453 26.5375 41.2013 0.03453 26.5398 
41.2014 -3.01547 26.5421 41.2016 -6.06546 26.5445 41.2017 -9.11546 26.5468 
41.2019 -12.1655 26.5491 41.202 -15.2155 26.5514 41.2022 -18.2655 26.5538 
41.2023 -21.3155 26.5561 41.2025 -24.3654 26.5584 41.2026 -27.4154 26.5607 
41.2029 -33.4655 26.5653 41.2031 -36.4655 26.5676 41.2032 -39.4655 26.5699 
40.8996 -43.9962 26.5928 40.0343 -45.2939 26.649 38.7393 -46.161 26.7322 
34.2178 -46.4655 27.0209 31.2238 -46.4655 27.2119 28.2299 -46.4655 27.4029 
22.1922 -46.4655 27.788 19.1484 -46.4655 27.9822 16.1046 -46.4655 28.1764 
13.0608 -46.4655 28.3706 10.0169 -46.4655 28.5647 6.97313 -46.4655 28.7589 
3.92932 -46.4655 28.9531 0.8855 -46.4655 29.1472 -2.15831 -46.4655 29.3414 
-5.20212 -46.4655 29.5356 -8.24593 -46.4655 29.7297 -11.2898 -46.4655 29.9239 
-14.3336 -46.4655 30.1181 -17.3774 -46.4655 30.3123 -20.4212 -46.4655 30.5064 
-23.465 -46.4655 30.7006 -26.5088 -46.4655 30.8948 -29.5526 -46.4655 31.0889 
-32.5964 -46.4655 31.2831 -38.6342 -46.4655 31.6683 -41.6281 -46.4655 31.8593 
-44.622 -46.4655 32.0503 24.8283 46.5297 21.2024 25.0299 46.5321 24.3627 
23.4808 46.5135 0.07872 23.6717 46.5158 3.07263 23.8627 46.5181 6.06654 
24.0537 46.5204 9.06046 24.2447 46.5227 12.0544 24.4357 46.525 15.0483 
26.2837 46.5112 -3.10618 29.2776 46.5112 -3.29717 32.2715 46.5112 -3.48816 
35.4564 46.5135 -0.68523 35.6474 46.5158 2.30868 35.8384 46.5181 5.30259 
36.0294 46.5204 8.29651 36.2204 46.5227 11.2904 36.4114 46.525 14.2843 
36.8039 46.5297 20.4385 37.0055 46.5321 23.5987 -36.048 46.5297 25.0859 
-35.8464 46.5321 28.2461 21.5829 46.5272 18.2364 18.5391 46.5272 18.4305 
15.4952 46.5272 18.6247 12.4514 46.5272 18.8189 9.40762 46.5272 19.0131 
6.36381 46.5272 19.2072 3.32 46.5272 19.4014 0.27618 46.5272 19.5956 
-2.76763 46.5272 19.7897 -5.81144 46.5272 19.9839 -8.85525 46.5272 20.1781 
-11.8991 46.5272 20.3722 -14.9429 46.5272 20.5664 -17.9867 46.5272 20.7606 
[...]
CELL_DATA 12638
SCALARS cell_scalars float
LOOKUP_TABLE default
-7088 -6692.4 -6933.9 -6879.4 -6701.6 -7034.7 -6901.6 -6170.4 -6237.2 
-5476 -5885.3 -4975.5 -5489.9 -5355.1 -6203.9 -6035.5 -6696.8 -6370.4 
-6739.6 -6112.9 -6224.7 -5463.1 -5672.3 -4969.3 -5314.8 -5246.7 -5946 
-5935.2 -6559.4 -6265.7 -6745.4 -6197.5 -6307.2 -5549.8 -5706.5 -4919.1 
-5293.3 -4972.8 -5747.9 -5762.1 -6375.8 -6190.3 -6683.2 -6240.9 -6356.9 
-5617.3 -5726.4 -4950.7 -5189.6 -4800.3 -5511.6 -5596.7 -6234.8 -6066.5 
-6512.2 -6291.9 -6409.7 -5692 -5800.8 -5021.7 -5429.8 -4483.5 -5179.7 
-5286.4 -6127.5 -6273.2 -5995.9 -6409.2 -6484 -6115.7 -6474.2 -5936.2 
-6335.9 -5859.1 -6354.5 -5838.5 -6328 -5839.3 -6283.2 -5781.4 -6314 
-5852.9 -6293.3 -5776.6 -6337.2 -5828.7 -6318 -5798.4 -6327.6 -5820 
-6368.9 -5824 -6377.1 -5813.8 -6345.1 -5865.4 -6329.8 -5832.5 -6336.1 
-5853 -6391.6 -5857.2 -6400.1 -5893.5 -6395.5 -5856.7 -6405 -5914.3 
-6377.9 -5889.5 -6405.9 -5898.3 -6391.8 -5964.3 -6404.7 -5962.5 -6394.9 
-5934.4 -6415.8 -5985.5 -6460.9 -5974.9 -6456.5 -6046 -6529.7 -6146.4 
-6560.5 -6514.9 -6139.9 -6464.4 -6306.9 -5711.8 -5505.4 -4749.9 -5245.7 
-4917.9 -5616.9 -5492.1 -6198 -6113.7 -6599.7 -6103.3 -6362.2 -5803.5 
-5825.3 -4944.4 -5058.9 -4826.3 -5539.9 -5420 -6140.9 -6078.5 -6655.9 
-6242.6 -6471 -5975.4 -5986.5 -5279.7 -5249.8 -4802.9 -5535.5 -5350.3 
-6065.5 -6007.9 -6633.9 -6304 -6652.3 -6100.9 -6229.1 -5488.4 -5468.2 
-4826 -5626 -5292.4 -6042.8 -5938.4 -6578.4 -6419.4 -6702.2 -6172 
-6473.4 -5638.3 -5745.8 -4992.4 -5698.2 -5300.1 -5989.1 -5900.1 -6734.3 
-6834.6 -6517.3 -6938 -6896.9 -6463.7 -6798.1 -6386.3 -6746.9 -6316 
-6746.2 -6303.4 -6743.7 -6303.2 -6709.1 -6277.9 -6717 -6306 -6723.6 
-6293.8 -6725.9 -6296.7 -6716.2 -6282.1 -6720.5 -6298.9 -6739.3 -6315.9 
-6732.7 -6319.5 -6738.2 -6327.6 -6735.3 -6328.6 -6733 -6325.8 -6753.8 
-6356.3 -6752.7 -6357.7 -6760.4 -6357.9 -6760.1 -6372 -6754.5 -6372 
-6777.8 -6380 -6782.5 -6391.7 -6766.5 -6380.8 -6781.8 -6426.1 -6776.8 
-6388.2 -6785 -6398.6 -6752.4 -6449 -6338.8 -5873.9 -5877.8 -5532.4 
-5804.8 -5597.4 -5482.7 -5396.8 -5139.3 -5433.6 -5294.1 -5353.8 -5653.4 
-5727 -4669.6 -4978.2 -4948.9 -5212 -4726 -4799.3 -5404 -5040.2 
-5898.2 -5722.8 -6161.9 -5987.5 -5652.3 -5940.7 -5053.7 -5293.7 -4666.2 
-4788.4 -5194.7 -4784.6 -5812.3 -5530.3 -5994.1 -5876.1 -5741.7 -5992.6 
-5095.2 -5381.9 -4610.6 -4812.3 -5012.3 -4496 -5696 -5374.8 -5936.6 
-5841.2 -5804.6 -6000.7 -5138.4 -5449.6 -4622.3 -4807.5 -4766.1 -4406.2 
-5552.8 -5233.9 -5847.4 -5777.4 -5841.9 -5996.7 -5181.5 -5471.8 -4552.4 
-4825.1 -6114.5 -5803.1 -6172.4 -5744.7 -5543.6 -5685.8 -5484.1 -5657.2 
-5444.1 -5677.7 -5431.9 -5744.8 -5482.7 -5750.9 -5525.7 -5733.8 -5521 
-5740.1 -5526.8 -5735.4 -5539.2 -5758.7 -5543 -5775.7 -5549.9 -5768.3 
-5550.1 -5778 -5564 -5793.7 -5585.2 -5810.8 -5577.6 -5832.8 -5598.8 
-5846.1 -5619.7 -5844.2 -5613.6 -5862.9 -5631.1 -5851.9 -5634.2 -5854.5 
-5633.5 -5848 -5630.1 -5792.4 -5610.4 -5800 -5594.1 -5851.2 -5632.9 
-5438.9 -5223.5 -5296 -5110.5 -5356.3 -5057.9 -5374.3 -5063.9 -5446.6 
-5210.2 -5320.5 -5169.9 -5336.8 -5151 -5333.5 -5094.4 -5356 -5155.2 
-5338.4 -5116.2 -5344.6 -5137.4 -5344.3 -5222.2 -5404.2 -5162 -5389.7 
-5201.5 -5397.6 -5201.7 -5399.9 -5239.3 -5410.7 -5276.2 -5434.9 -5234.6 
-5517.1 -5295.8 -5502.8 -5301.6 -5499 -5295 -5587.2 -5334.3 -5451.2 
-5396.4 -5494.5 -5284.6 -5422.6 -5242.5 -5509.7 -5210.1 -4420.7 -4788.3 
-4760.2 -4523.6 -5411.5 -5081.4 -6000.7 -5717.5 -5785 -5843.3 -5324.4 
-5571 -4479.7 -4881.5 -4762.6 -4547.8 -5348.9 -5036.2 -6003.2 -5665.3 
-5898.8 -6015.6 -5551.9 -5771.6 -4810.3 -5219.5 -4721.7 -4627.8 -5281 
-4943.6 -5940.8 -5568.1 -5948.7 -6035.1 -5674.8 -5857 -5028.8 -5334.9 
-4806.6 -4737 -5219.7 -4944.5 -5867.9 -5522.5 -6101.2 -6105.4 -5842.9 
-5933.2 -5280.8 -5592.6 -4772.5 -4819.1 -5149.3 -4843.2 -4913.1 -5209.7 
-5370.7 -5016.1 -5421.4 -4400.4 -6019.2 -5224.9 -5057.7 -4615.5 -4865.9 
-4803.1 -4557.8 -4527.8 -4328.8 -5138.6 -4774.5 -5028.4 -4731.6 -5657.6 
-5828.6 -5765.6 -5532.2 -5674.6 -5330.6 -6007.7 -5902.3 -5863.3 -6094.4 
-5206.8 -5561.2 -4709.9 -5005 -4820.3 -4646.7 -5536.6 -5240.8 -5882 
-5797.9 -5982.4 -6012.9 -5346.5 -5683.5 -4776.8 -5020.1 -4666.9 -4525.1 
-5405 -5031.9 -5850.1 -5658.8 -5971 -5949.3 -5392 -5721.9 -4741.5 
-5047 -4611.1 -4502.4 -5360.3 -4912.8 -5723.1 -5498.8 -5984.8 -5834.6 
-5471.9 -5820.6 -5804.5 -5922.6 -5572.6 -5747.4 -4935.5 -5330.7 -4501.8 
-4513.5 -4988.6 -4697.5 -5640 -5267.5 -6011.6 -5934.1 -5721 -5835.9 
-5103.2 -5473.8 -4433.4 -4702.4 -4949 -4739.5 -5573.4 -5263.5 -6012.4 
-5863.3 -5819.8 -5904.6 -5328.7 -5644.1 -4594.1 -4963.5 -4864.1 -4656.5 
-5465 -5143.7 -6049.5 -5761.2 -5897.6 -6038.7 -5534.2 -5766.1 -4844.1 
-5187.1 -4792.2 -5134.3 -4744.1 -4653.2 -5102.7 -5028.5 -5096.9 -4931.9 
-5119.5 -4981.3 -5126.5 -4959.8 -5075.4 -4969.9 -5132.6 -4905 -5157.7 
-4939.4 -5179.9 -5011.5 -5173 -4993.2 -5171.7 -4987 -5173.3 -5020.1 
-5192.9 -5007.3 -5187.4 -4994.2 -5176.7 -5025.3 -5174.6 -5020.5 -5158.2 
-5025.6 -5165.6 -5000 -5167.9 -5004.3 -5181.9 -4976.9 -5169.7 -5011.5 
-5192.8 -4992.7 -5236.5 -5064.7 -5255.4 -5057.6 -5230.8 -5060.2 -4729.8 
-4612.2 -4654.5 -4606.4 -4704 -4495.4 -4608.3 -4351.2 -4717.7 -4488.7 
-4781 -4567.3 -4725.9 -4495 -4711.1 -4499.3 -4782.2 -4472.4 -4671.3 
-4565.3 -4835.7 -4500.4 -4725.5 -4539 -4790.2 -4530.4 -4804 -4588.7 
-4806.5 -4591.4 -4808.1 -4636.7 -4836.7 -4707.4 -4848.7 -4633.7 -4841.4 
-4671.3 -4708.4 -4322.1 -4674.1 -4375.2 -4839.2 -4611.6 -4954.3 -4690.2 
-5047.6 -4759.1 -4940.6 -4676 -4467.2 -4792.3 -5637 -5721.1 -5402.7 
-4955.4 -5189.8 -4788 -4828.4 -4503.5 -4556.1 -4480.5 -4711.9 -4504.3 
-4415.5 -4540.5 -5319.4 -5058.2 -4787 -4736.8 -4802.6 -4657.5 -5435.2 
-5210 -5860.5 -5698.3 -5950 -5681.2 -4854.5 -4792.4 -4412.8 -4544.3 
-6062.4 -5972.1 -5769.9 -5834.4 -5099.9 -5270.1 -5564.5 -5886.1 -5009.3 
-5304.3 -4541.3 -4731.8 -5314.3 -4871.6 -5862.9 -5593.2 -6046.6 -5938.4 
-5632.8 -5978.5 -4973.4 -5311.9 -4512.8 -4711.3 -5141 -4615.5 -5730.2 
-5461.5 -5987.5 -5890 -5693.1 -5973.2 -5016.9 -5354.9 -4518 -4748.1 
-4784.2 -4375.5 -5431.9 -5165.8 -5875.2 -5734 -5788.4 -5961.8 -5146.7 
-5482.5 -5357.3 -5614.1 -4690.7 -5068.2 -4613.1 -4452.7 -5233.7 -4898 
-5897.4 -5575 -5896.4 -6038.8 -5555.1 -5787.5 -4822.8 -5286.9 -4632.6 
-4618.8 -5190.6 -4860.7 -5857.3 -5503.5 -5951.7 -6057.9 -5701.9 -5894.2 
-5107.1 -5397.3 -4563.2 -4688.9 -5149.4 -4827.4 -5790.9 -5484 -6050.9 
-6059.3 -5795.9 -5874.5 -5189.8 -5556.4 -4719.1 -4895 -4741.7 -4730.2 
-4789 -4727.8 -4726 -4599.2 -4593.7 -4680 -4655.4 -4632.3 -4678.3 
-4675.5 -4700.6 -4643.8 -4686.4 -4634.3 -4672.2 -4570.8 -4707.3 -4583 
-4710.8 -4593.9 -4675.4 -4621.3 -4688 -4576.3 -4769.2 -4575.4 -4790.1 
-4785.8 -4831.8 -4778.7 -4816.4 -4794.3 -4803.7 -4789.1 -4834.1 -4729 
-4748.3 -4685.9 -4800.7 -4694.7 -4505.5 -4538.1 -4397.3 -4592.8 -4628.6 
-4628.8 -4558.3 -4678.6 -4552 -4639.7 -4491.3 -4665.2 -4507.6 -4668.6 
-4475.7 -4657.2 -4496.4 -4659.1 -4473.8 -4655.1 -4519.8 -4620.9 -4524.9 
-4597.2 -4595.9 -4683.4 -4626.2 -4673.5 -4581.5 -4672 -4551.5 -4605.1 
-4269.8 -4519.9 -4290.9 -4426.4 -4441.2 -4457.2 -4472.6 -4538.5 -4416.6 
-4555.3 -4447.4 -4561.9 -5296.6 -5136.5 -4892.2 -4440.2 -4448.8 -4755.9 
-4833.7 -4701 -4641.7 -4857.5 -4924.9 -4718.3 -4729.1 -4917.5 -5063.9 
-4790.6 -4764.7 -5157.7 -4840 -4868.4 -5745.8 -5437.5 -6037.7 -5897.9 
-5857.2 -6086.3 -5712.2 -5400.1 -5772.5 -5945.2 -5508.4 -5745.6 -5524.7 
-5314.3 -4749.9 -4843.9 -5489.6 -5225.7 -4698.5 -4864.9 -4743.2 -4862.8 
-5921.2 -5795.2 -5909 -5770.2 -4830 -4924.4 -5319 -5616.2 -4968.8 
-5301.5 -4854.7 -4917.3 -4808.2 -5008.3 -4818.2 -4983.7 -4806.6 -4998.8 
-4842.1 -5008 -4833.2 -5007.3 -4861.1 -5044.5 -4923.7 -5052.6 -4945 
-5077.9 -4954.9 -5110.8 -4970.1 -5111.9 -4992.8 -5133.1 -5016.9 -5130.9 
-4985.1 -5136.4 -4988 -5184.7 -4814.8 -5053.1 -4905.4 -5049.9 -4974.1 
-5037.4 -4980.4 -5081.8 -4978 -5019.8 -4663.7 -5122.9 -4701.6 -4968.8 
-4769.7 -5017.4 -4842.5 -5039.7 -4790.2 -5006.2 -4857.3 -5084.4 -4889 
-5107 -4980.5 -5236.9 -5058.8 -5257.2 -4943.1 -5317.3 -5739 -5830.1 
-5285.9 -5628.6 -4509.7 -4897.3 -4871.2 -4571 -5439.2 -5094.4 -6023.5 
-5758.1 -5799.5 -5937.6 -5309.9 -5583.7 -4442.4 -4909.4 -4830.8 -4618.5 
-5366.4 -5091.9 -5966.7 -5695 -5826.9 -5950.7 -5514.2 -5760.7 -4892.3 
-5246.6 -4688.8 -4581.7 -6043.4 -6029 -5433.9 -5744.8 -4944.5 -5141.6 
-4761.5 -4767.8 -5270.7 -4868.3 -5838 -5607.7 -6054.7 -5936.6 -5502.3 
-5858.6 -4885.2 -5214.3 -4672.2 -4664.7 -5204.2 -4858.4 -5786.5 -5507.7 
-6045.4 -5892.5 -5595 -5911.1 -4960.1 -5285.1 -4483.2 -4690.9 -4956.8 
-5136.4 -4909.5 -5179.8 -4917.5 -5099.1 -4960.4 -5184.2 -4862.4 -5096.3 
-4969.3 -5209.9 -4840.3 -4979.4 -4885.7 -5129.5 -5006.4 -4630.7 -5068.1 
-4981.4 -5449.1 -5243.9 -5570.7 -5360.1 -5256.1 -5411 -5731.8 -5367.1 
-5348.8 -5171 -5736.2 -5204.1 -5919.8 -5787.6 -6057.6 -6082.9 -5750 
-5940.2 -5811.3 -5714.5 -5800.3 -5259.4 -5605.6 -5462.4 -5576.3 -5320.7 
-5464.1 -5524.8 -5653.9 -5634.6 -5723.8 -5486.2 -5754.2 -5479.7 -5665.9 
-5473.3 -5698.5 -5488 -5638.4 -5573.3 -5711.6 -5526.3 -5705.7 -5582.4 
-5748.3 -5515.7 -5723.9 -5577 -5706.8 -5559.2 -5729.9 -5590 -5724.1 
-5439.5 -5706.8 -5418.1 -5603.4 -5422 -5528.3 -5484.7 -5574 -5458.7 
-5670.9 -5423.4 -5603.5 -5520.7 -5695.4 -5481.2 -5686 -5503.4 -5687.6 
-5459.4 -5686.5 -5462.5 -5643.3 -5452.7 -5625.8 -5431 -5625.5 -5436.9 
-5625.3 -5411.6 -5617.5 -5457.9 -5645.5 -5445.1 -5662.8 -5430 -5645 
-5417 -5616.9 -5407.7 -5585 -5375.4 -5553 -5323.5 -5537.1 -5265.9 
-5479.6 -5835.5 -5944.5 -5493.5 -5711.9 -4969.7 -5209.9 -4476.6 -4490.3 
-5024.8 -4722.9 -5682.2 -5334.5 -5981 -5963.9 -5766.3 -5915.1 -5102.5 
-5476.9 -4485 -4625.2 -4951.2 -4665.6 -5623.6 -5294.5 -6067 -5941.5 
-5860.3 -5926.8 -5121.1 -5534.8 -4567.7 -4746.8 -6032.4 -5859.3 -5809.1 
-6033.9 -5154.5 -5505 -4578.9 -4879.5 -5033.1 -4638.4 -5669.9 -5454.7 
-5916.3 -5850.9 -5903.9 -6042.8 -5267.9 -5577.8 -4777.3 -4960.6 -4675.1 
-4686.1 -5455.6 -5119.5 -5816.3 -5693.8 -5956.9 -5988.6 -5305.3 -5622.7 
-4757.5 -4982.4 -5792.8 -5805 -5460.2 -5946.4 -5811.4 -5643.3 -5626.1 
-5850.4 -4526.7 -4947.2 -4564.2 -4713.5 -4981.9 -5581.4 -5231.5 -5910.1 
-5929.8 -6085 -5919.3 -5920.1 -5731.2 -5553.9 -5737.1 -5936.6 -6007.6 
-5996.7 -6046.4 -5950.4 -6048.4 -6001.4 -6050.7 -5934.6 -6057.7 -5976 
-6061 -5981.5 -6056.9 -5973 -6004.9 -5973 -5991.6 -5954.6 -6002.3 
-5913.4 -5973.1 -5839.1 -5914.2 -5855.9 -5908.3 -5906.4 -5981.9 -5827 
-5929.7 -5863.4 -5914.1 -5869.3 -5968.2 -5980 -5908 -5950.6 -5843.1 
-5976.8 -5924 -5937.6 -5889.9 -5928.1 -5855.4 -5899.2 -5840.6 -5884.7 
-5832.1 -5968.5 -5855.1 -5963.3 -5932.6 -5993.9 -5944.5 -5962.3 -5982 
-5943.2 -5979.8 -5870.4 -5986.6 -5910.7 -5971.5 -5921.3 -5991.9 -5879.1 
-5937.5 -5885 -5990.8 -5749.5 -5839.7 -5205.5 -5617.4 -4323.4 -4855.1 
-4814.7 -4550.9 -5408 -5097.9 -5972.8 -5729.1 -5881 -5928.4 -5394.1 
-5662.5 -4524.9 -5067 -4716.4 -4484.3 -5289 -4998.7 -5921.5 -5621.6 
-5917.2 -6038 -5584 -5832.2 -4980.2 -5354.3 -6019.1 -6043.5 -5951.6 
-5459.5 -5754.9 -4926.3 -5160.5 -4724.8 -4695.5 -5347.6 -4911.7 -5838.2 
-5638.5 -6046.2 -5953.5 -5514.7 -5852.5 -4895.1 -5200.1 -4672.9 -4591.2 
-5224.7 -4923.6 -5792.4 -5549.3 -6011.9 -5921.6 -5612 -5902.3 -4976.3 
-5304.2 -5880.8 -5922.9 -5937.3 -5898 -5740.8 -6034.2 -6105.8 -6009.6 
-6097.5 -6080.8 -5806.2 -6091.2 -6077.8 -5765.9 -5726.1 -6050.4 -6101.1 
-4888 -5244.2 -4479 -4468.6 -4685.4 -6133.6 -6121.4 -6130.4 -6027.5 
-6072.4 -6127.3 -6145.4 -6144.5 -6157.3 -6146.3 -6092.8 -6108.9 -6105.2 
-6092.1 -6104.4 -6097.5 -6117 -6079.6 -6139.5 -6098.6 -6149.4 -6109.3 
-4747.6 -4752.8 -5142.5 -4880 -6201.6 -6102.7 -6169.5 -6103.9 -6173.5 
-6058 -5583.9 -5780.1 -5871.2 -5739 -5901.1 -5817.5 -5913.5 -5831.2 
-5862.5 -5836.4 -5844.7 -5779.2 -5878.6 -5772.5 -5903.4 -5838.5 -5880.9 
-5813.4 -5862.4 -5826.9 -5855.8 -5829.3 -5832.1 -5841.3 -5818.3 -5830.2 
-5826.6 -5798.1 -5779.3 -5740.6 -5779.4 -5701.5 -5774.7 -5678.6 -4949.3 
-5333.1 -4514 -4501 -5027.6 -4688.7 -5656.6 -5335.6 -5941.3 -5971 
-5631.8 -5848 -5119.2 -5475.9 -4653.8 -4604 -5013.9 -4786 -5645 
-5285.1 -6022.7 -5957.5 -5780.9 -5881.9 -5265.6 -5553.2 -5179.9 -5520.2 
-4631.2 -4883.7 -4921.6 -4557.7 -5624.2 -5369.4 -5937.5 -5816.6 -5923.5 
-6106 -5264.5 -5620.5 -4679.1 -4983.9 -4676 -4610.1 -5442.3 -5086.8 
-5863.9 -5712.7 -5951.8 -6003 -5371.6 -5695.4 -6014.9 -5421.6 -5733.4 
-5793.9 -5510.7 -5943.1 -5711.3 -5955.1 -5742.6 -5467.8 -5718.3 -5246.7 
-5479.1 -5558.6 -5267.2 -5564.7 -4920 -5174.4 -4682.5 -4659.2 -4941.1 
-4531.6 -4822 -4556.2 -4845 -4764 -4520.9 -5049.4 -4899.8 -5152.9 
-5623.5 -5468.6 -5644.6 -5464.7 -5561.3 -5463.2 -5633.4 -5511.9 -5501 
-5403.5 -5470.5 -5334 -5436.8 -5281.3 -5525.1 -5261.3 -5457.9 -5252.3 
-5577.7 -5312.9 -5583.7 -5331.3 -5510.9 -5358.3 -5540.3 -5355.6 -5427.9 
-5242.2 -4779.6 -4560.7 -5350.6 -5079.6 -5958.5 -5674.8 -5856.2 -5922.6 
-5589.3 -5752.8 -4767 -5196.8 -4679.8 -4543 -5234.6 -4919.5 -5917.3 
-5598.8 -5922.7 -6073.8 -5645 -5857.8 -4532.1 -4624.3 -5316.1 -4989.4 
-5835.8 -5552.3 -6088.5 -5979.7 -5625.5 -5931.7 -4967.2 -5271.5 -4581.8 
-4677.5 -5148 -4766.6 -5719.9 -5469.4 -6005.8 -5857.9 -5654.6 -5972.1 
-5904.5 -5765.5 -5875.2 -5666.6 -5864.7 -5697.1 -5804.4 -5665.5 -5790.2 
-5592.4 -5753.3 -5596.4 -5760.3 -5551.2 -5727.1 -5553.8 -5736.3 -5529 
-5748.7 -5546.9 -5779.1 -5574.1 -5727.9 -5541.6 -5545.4 -5096.7 -5395.6 
-5408.1 -5242.1 -4770.8 -5088.4 -4606.8 -4490.1 -5151.5 -5255.6 -4787.4 
-4701 -4848.1 -5113.1 -4866.1 -5105.8 -4890.7 -4890.3 -4634.6 -5203.6 
-4936.2 -5675.5 -5370.1 -5588.6 -5307.2 -4974.8 -4944.3 -5311.6 -5206.4 
-5063.8 -4771.2 -5100 -4945.7 -5033.4 -4862.3 -5022.8 -4834.4 -5020.3 
-4845 -4962.1 -4719 -4805.2 -4649.2 -4805.6 -4504.2 -4735.3 -4435.5 
-4890.7 -4551.1 -5365.3 -5010.9 -4656.3 -4547.6 -5115.7 -4852.1 -5444.7 
-5667.3 -5411.4 -5550.4 -5963.4 -5954.2 -5724 -5857.7 -5092.8 -5439.1 
-4559.3 -4561.8 -4891 -4688.7 -5579.9 -5223.3 -6090.8 -5903.5 -5879 
-5951.9 -5908.5 -5771.5 -5932.9 -6077.3 -5268.6 -5611.8 -4740.5 -5029.9 
-4678.9 -4518 -5454.2 -5039.3 -5882.5 -5706 -6020.6 -6021.7 -5352 
-5008.5 -4555.1 -4759.5 -5303.7 -5099.2 -5281.7 -5121.6 -5296.7 -5110 
-5258.1 -5099.6 -5273.5 -5110.2 -5224.4 -5083.5 -5228 -5108.3 -5188.7 
-5074.2 -5160.1 -4996.4 -5167.2 -5006.6 -4501.9 -4878.4 -4580.9 -4559.4 
-4548.3 -4940.8 -4769.9 -5277.2 -4690 -4450 -4631.8 -4826.7 -4592.1 
-5411.3 -5108.5 -5730.5 -4782.5 -4727.5 -4748.1 -4640.9 -5236.9 -5694.3 
-5345 -4551.5 -5233.1 -4843.1 -4602.4 -5091.9 -5202.3 -5072.3 -5025.2 
-4853.5 -4635.2 -4792.7 -4692 -4781.2 -4638.4 -4747 -4609 -4727.5 
-4631.3 -4723.6 -4600.1 -4743 -4597 -4712.7 -4570.5 -4798 -4662.3 
-4694.2 -4629.9 -5933.7 -5580.1 -5914.8 -5985.5 -5544.7 -5791 -4779.4 
-5285.8 -4719.6 -4578.9 -5310.2 -4965.8 -5958.1 -5627.7 -5855.6 -6092 
-5766 -5505.3 -6065.6 -5904.6 -5646.7 -5975.4 -4908.6 -5252.1 -4508.9 
-4640.7 -5061.3 -4802.2 -5655.4 -5479.7 -5925.5 -5837.4 -4482.2 -4466.1 
-4461.1 -4509.8 -4621.1 -4624.3 -4560.6 -4672.2 -4506.1 -4624.5 -4499.2 
-4586.9 -4444.5 -4597.5 -4426.5 -4485.1 -4398.2 -4533.2 -4394.8 -4580 
-4414.4 -4557.9 -4655 -4862.4 -5520.8 -5190.3 -4632.8 -4465.9 -4575.4 
-5085.1 -4908.1 -4617.7 -4847.2 -4727.8 -4499.6 -4617.5 -5040.6 -4691.7 
-5693.5 -5419.1 -6033 -4579.1 -4879.6 -5343.1 -5554.9 -5292.9 -5811.9 
-4746.8 -4827 -4681.3 -4865.8 -4646.4 -4883.9 -4492.3 -4752.6 -4524.9 
-4728 -4513.9 -4778.3 -4503.3 -4769.1 -4650.6 -4772 -4740.9 -5016.9 
-5982.4 -5864.6 -4782.6 -4903.4 -4761.9 -4925.1 -4732.5 -4869 -4800.2 
-4913.3 -4844.4 -4975.6 -4863.2 -4973.1 -4848.9 -4982.5 -4872.7 -5008.2 
-4865.3 -5039.1 -4874.7 -5065.4 -5729.6 -5827.6 -5256.1 -5595.3 -4515.2 
-4819.1 -4891.9 -4565.4 -5531.2 -5197.3 -6132 -5854.7 -5897.3 -5861.2 
-5565.4 -5925.9 -6051.1 -5310.8 -5605.8 -4744.8 -4990.9 -4593.9 -4651.4 
-5443.8 -5048.9 -5914.5 -5666.9 -5357.5 -4701.2 -5233.9 -4806.9 -5032.9 
-5397.9 -5016.5 -4728.6 -5309.3 -5481.7 -5881.2 -5803.5 -6054.3 -6027.8 
-5592.3 -5802.5 -5876 -5548.4 -5257.6 -5539.2 -5276.8 -5464.9 -5018 
-5278.4 -5311.4 -5522.2 -5368.7 -5005.7 -5848.7 -5646 -5964.5 -5159.6 
-5465.2 -6032.2 -5678 -6031.1 -5451.4 -5759.2 -5359.5 -5620.9 -5327.4 
-5532.4 -5307.5 -5516.8 -5304 -5496.9 -5325.4 -5510.7 -4596.2 -4755 
-5104.5 -4699.6 -5666.2 -5418 -5261.2 -5425.4 -5366.8 -5570.8 -5327.8 
-5483.2 -5250.1 -5490.4 -5308.9 -5454.4 -5313.5 -5527.4 -5889.8 -6042.7 
-5473.8 -5744.2 -4802.8 -5166 -4690.4 -4678.8 -5210.3 -4936.9 -5829.1 
-5525.3 -5536.4 -6032.3 -5917.9 -5869.4 -5547.9 -5482.3 -5724.8 -5958.4 
-6038.8 -5861.5 -5969.8 -6063 -5899 -6048.9 -5960.3 -6074.2 -5860.4 
-6019.2 -5769.3 -5852.3 -6059.2 -6017.7 -5669.7 -5836.4 -5327.3 -5937.5 
-5857.3 -6057.8 -5784.4 -5872.4 -5902.3 -5986.4 -5803.2 -5872.1 -5883 
-6036.6 -5745.3 -5871.4 -5718.5 -5797.3 -5831.7 -5816.2 -5784.1 -5916.2 
-5790.6 -5855 -5342.3 -5590.9 -4625.4 -4881 -4903.9 -4705 -5529.4 
-5190.4 -4740.7 -5074.9 -4557.1 -4534.5 -5350 -4993.2 -6078.3 -5979.3 
-5941.5 -5896.2 -5526.1 -5786.3 -5798.3 -5881.9 -5871 -5806 -5839.2 
-5587.9 -5636.7 -5874.6 -5064 -5325.3 -5977.3 -5873 -5904.7 -5974.4 
-6101.6 -4814.2 -5141.2 -5992.3 -6088.4 -5895 -6081.6 -4641.9 -4768.4 
-4634 -4576.2 -5958.3 -6054.9 -5961.3 -6082.6 -5890.5 -6046.2 -6046.2 
-5145.8 -4821.5 -6073.7 -5830.4 -4883.9 -4630.7 -5919.6 -5841.3 -5842.6 
-5879.9 -5857.9 -5969.2 -5920 -6046.8 -5889.4 -6087.4 -5713.7 -5279.8 
-5600.9 -5692.8 -5436.9 -5711.3 -5704.5 -5904 -5168.1 -5319.8 -4840.3 
-5877.5 -5924.1 -5762.5 -5979.3 -5897.6 -5922.8 -5737.4 -5957.9 -5769.5 
-5987.7 -5807.2 -6023.1 -5848.2 -5327.3 -5579.6 -4646.7 -4947.1 -4824.4 
-4618.9 -4478.8 -4684.9 -5757.2 -5843.4 -5939.6 -5861.7 -5117 -5324.2 
-4763.2 -5468.9 -5526.3 -5102 -4695.1 -5548 -5770.4 -5338.1 -5568.2 
-5009 -5679.4 -5610.1 -5629.4 -5403.6 -5198.3 -5427.4 -5229.4 -4886.4 
-5162.8 -4494.1 -4495 -5312.8 -5265.7 -5030.3 -4784.5 -4861.4 -4668.5 
-4553.6 -4883.4 -4647.7 -4705.8 -4759.9 -4639.1 -5171.4 -5280 -4922.8 
-4977 -4510.3 -4547.5 -4576.3 -6416.3 -6277.8 -6323.1 -6522.3 -6837.1 
-6771.4 -6788.7 -6904.7 -7005.5 -6984.3 -7001.8 -7078.8 -7104.1 -7093.6 
-7111.4 -7171.9 -7169 -7170.1 -7185.4 -7221.7 -7219.6 -7222.5 -7243.4 
-7265.1 -7259.3 -7262.6 -7277.1 -7302.2 -7293.8 -7283.3 -7298.4 -7335 
-7281.9 -7277.8 -7279.5 -7296.2 -6917.5 -6849.2 -6829.5 -6934 -6995.7 
-7337.6 -7551.3 -7098.8 -7368.6 -7881.9 -7048.6 -7393.9 -7889.2 -6899.4 
-7409.2 -7789.6 -6875.4 -7402.6 -7672.4 -6939.2 -7413.1 -7729.9 -7047.6 
-7419.9 -7821.7 -7135.9 -7414.7 -7885.4 -7095.7 -7419 -7901.6 -6949.9 
-7417.8 -7845.7 -6933.7 -7407.5 -7702.8 -6954.1 -7418 -7694.6 -7060.3 
-7424.9 -7810.8 -7168.3 -7426.8 -7901.8 -7148.3 -7436 -7874.6 -7024.6 
-7432.4 -7855.6 -6998.9 -7437.1 -7746.1 -6991.7 -7450.8 -7744.7 -7076.6 
-7437.2 -7787.1 -7159 -7418.5 -7623.2 4010 9076.9 11722 10128 
-5874.9 -4355.7 -2477.2 -3104.5 -6935.4 -6790.3 -6700.2 -6784.6 -7147.1 
-7101.6 -7094.3 -7154.7 -7260.8 -7241.1 -7251.2 -7292.1 -7330.7 -7326.6 
-7340.2 -7372.7 -7389.1 -7379.8 -7396.6 -7422 -7423.1 -7417.1 -7428.1 
-7454.1 -7408.2 -7404 -7424.7 -7451.9 -7255.7 -7126 -7066.7 -7041.6 
-7082.1 -7318.4 -7332.4 -7096.2 -7316.2 -7295.2 -7151.5 -7314.6 -7297.4 
-7097.4 -7333.9 -7296.4 -7301.3 -7501.4 -7478.2 -7387 -7532.2 -7497.4 
-7389.5 -7535.8 -7529.7 -7250 -7551.9 -7627.3 -6262.4 -6072.8 -6072.6 
-6266.3 -6813.4 -6721 -6715.4 -6800.5 -6975.5 -6921.6 -6914 -6953.3 
-7044.9 -7019 -7014.1 -7028.7 -7065.8 -7056.2 -7054.3 -7056.6 -7157.9 
-7157.6 -7155.4 -7151.8 -7259 -7235.4 -7231.1 -7236.9 -7345 -7312.4 
-7308.7 -7321 -7264.5 -7255.4 -7254 -7270.9 -7081.3 -7090.7 -7086.7 
-7094.6 27116 28004 27699 25738 3999.8 4612.1 3888.4 2224.3 
-6438.3 -6253.1 -6366.9 -6668.9 -7180.5 -7114.4 -7118 -7191.9 -7281.5 
-7243.3 -7245.7 -7290.1 -7396.9 -7407 -7418.5 -7440.3 -7596.9 -7562.5 
-7537.3 -7570.5 -7617.8 -7622.8 -7634.3 -7623.8 -7561.6 -7552.1 -7553.3 
-7559.6 -7259 -7240.7 -7249.4 -7253.6 -7067.9 -7297.3 -7607.1 -7085.8 
-7339.8 -7882 -7087.9 -7359.4 -7880.6 -7101.9 -7367.8 -7891.1 -7105.9 
-7372.9 -7885.9 -7112.6 -7375.6 -7879.3 -7120.3 -7375.9 -7857.7 -7120.3 