 VARIABLES= "X","Y","Z","PRESS"  
ZONE N=                                       27712 E=                             6928 F=FEPOINT, ET=QUADRILATERAL
      -167.11169         1.31026       -12.83020    -63618.90983
      -165.80409         2.09745       -12.87467    -63618.90983
      -165.70263         1.31127       -12.24762    -63618.90983
      -167.11169         1.31026       -12.83020    -63618.90983
      -165.80409         2.09745       -12.87467    -63549.93081
      -167.11169         1.31026       -12.83020    -63549.93081
      -167.09876         1.90439       -13.12605    -63549.93081
      -165.80409         2.09745       -12.87467    -63549.93081
      -165.70263         1.31127       -12.24762    -63577.54147
      -164.49196         2.19390       -12.63478    -63577.54147
      -164.32086         1.31352       -11.58195    -63577.54147
      -165.70263         1.31127       -12.24762    -63577.54147
      -164.49196         2.19390       -12.63478    -63029.49295
      -165.70263         1.31127       -12.24762    -63029.49295
      -165.80409         2.09745       -12.87467    -63029.49295
      -164.49196         2.19390       -12.63478    -63029.49295
      -164.32086         1.31352       -11.58195    -64058.53819
      -163.23443         2.15017       -12.25641    -64058.53819
      -163.12188         1.31969       -10.69138    -64058.53819
      -164.32086         1.31352       -11.58195    -64058.53819
      -163.23443         2.15017       -12.25641    -62761.52779
      -164.32086         1.31352       -11.58195    -62761.52779
      -164.49196         2.19390       -12.63478    -62761.52779
      -163.23443         2.15017       -12.25641    -62761.52779
      -163.12188         1.31969       -10.69138    -65695.27087
      -162.27997         1.88555       -11.33869    -65695.27087
      -162.35391         1.33415        -9.34063    -65695.27087
      -163.12188         1.31969       -10.69138    -65695.27087
      -162.27997         1.88555       -11.33869    -64021.63801
      -163.12188         1.31969       -10.69138    -64021.63801
      -163.23443         2.15017       -12.25641    -64021.63801
      -162.27997         1.88555       -11.33869    -64021.63801
      -167.09876         1.90439       -13.12605    -62349.57431
      -165.82923         2.27108       -13.83670    -62349.57431
      -165.80409         2.09745       -12.87467    -62349.57431
      -167.09876         1.90439       -13.12605    -62349.57431
      -165.82923         2.27108       -13.83670    -62153.59005
      -167.09876         1.90439       -13.12605    -62153.59005
      -167.07564         2.15899       -13.74188    -62153.59005
      -165.82923         2.27108       -13.83670    -62153.59005
      -165.80409         2.09745       -12.87467    -61923.65916
      -164.58295         2.40683       -13.91072    -61923.65916
      -164.49196         2.19390       -12.63478    -61923.65916
      -165.80409         2.09745       -12.87467    -61923.65916
      -164.58295         2.40683       -13.91072    -61868.77846
      -165.80409         2.09745       -12.87467    -61868.77846
      -165.82923         2.27108       -13.83670    -61868.77846
      -164.58295         2.40683       -13.91072    -61868.77846
      -164.49196         2.19390       -12.63478    -61414.64521
      -163.33471         2.48771       -13.88352    -61414.64521
      -163.23443         2.15017       -12.25641    -61414.64521
      -164.49196         2.19390       -12.63478    -61414.64521
      -163.33471         2.48771       -13.88352    -61395.63592
      -164.49196         2.19390       -12.63478    -61395.63592
      -164.58295         2.40683       -13.91072    -61395.63592
      -163.33471         2.48771       -13.88352    -61395.63592
      -163.23443         2.15017       -12.25641    -61930.00794
      -162.20630         2.46859       -13.32607    -61930.00794
      -162.27997         1.88555       -11.33869    -61930.00794
      -163.23443         2.15017       -12.25641    -61930.00794
      -162.20630         2.46859       -13.32607    -61384.03744
      -163.23443         2.15017       -12.25641    -61384.03744
      -163.33471         2.48771       -13.88352    -61384.03744
      -162.20630         2.46859       -13.32607    -61384.03744
      -167.07564         2.15899       -13.74188    -62264.42334
      -165.85125         2.05765       -14.75428    -62264.42334
      -165.82923         2.27108       -13.83670    -62264.42334
      -167.07564         2.15899       -13.74188    -62264.42334
      -165.85125         2.05765       -14.75428    -62076.20391
      -167.07564         2.15899       -13.74188    -62076.20391
      -167.05482         1.88784       -14.35055    -62076.20391
      -165.85125         2.05765       -14.75428    -62076.20391
      -165.82923         2.27108       -13.83670    -61570.13805
      -164.63813         2.23756       -15.12216    -61570.13805
      -164.58295         2.40683       -13.91072    -61570.13805
      -165.82923         2.27108       -13.83670    -61570.13805
      -164.63813         2.23756       -15.12216    -61846.27730
      -165.82923         2.27108       -13.83670    -61846.27730
      -165.85125         2.05765       -14.75428    -61846.27730
      -164.63813         2.23756       -15.12216    -61846.27730
      -164.58295         2.40683       -13.91072    -60707.37188
      -163.40157         2.36667       -15.43428    -60707.37188
      -163.33471         2.48771       -13.88352    -60707.37188
      -164.58295         2.40683       -13.91072    -60707.37188
      -163.40157         2.36667       -15.43428    -60796.92357
      -164.58295         2.40683       -13.91072    -60796.92357
      -164.63813         2.23756       -15.12216    -60796.92357
      -163.40157         2.36667       -15.43428    -60796.92357
      -163.33471         2.48771       -13.88352    -59965.64432
      -162.13197         2.52059       -15.38899    -59965.64432
      -162.20630         2.46859       -13.32607    -59965.64432
      -163.33471         2.48771       -13.88352    -59965.64432
      -162.13197         2.52059       -15.38899    -60037.93519
      -163.33471         2.48771       -13.88352    -60037.93519
      -163.40157         2.36667       -15.43428    -60037.93519
      -162.13197         2.52059       -15.38899    -60037.93519
      -167.05482         1.88784       -14.35055    -61201.03245
      -165.83982         1.27152       -15.24835    -61201.03245
      -165.85125         2.05765       -14.75428    -61201.03245
      -167.05482         1.88784       -14.35055    -61201.03245
      -165.83982         1.27152       -15.24835    -60007.54906
      -167.05482         1.88784       -14.35055    -60007.54906
      -167.04711         1.28571       -14.63027    -60007.54906
      -165.83982         1.27152       -15.24835    -60007.54906
      -165.85125         2.05765       -14.75428    -60478.21150
      -164.61286         1.25778       -15.82633    -60478.21150
      -164.63813         2.23756       -15.12216    -60478.21150
      -165.85125         2.05765       -14.75428    -60478.21150
      -164.61286         1.25778       -15.82633    -60263.38678
      -165.85125         2.05765       -14.75428    -60263.38678
      -165.83982         1.27152       -15.24835    -60263.38678
      -164.61286         1.25778       -15.82633    -60263.38678
      -164.63813         2.23756       -15.12216    -59503.80709
      -163.36337         1.24461       -16.35399    -59503.80709
      -163.40157         2.36667       -15.43428    -59503.80709
      -164.63813         2.23756       -15.12216    -59503.80709
      -163.36337         1.24461       -16.35399    -59231.21380
      -164.63813         2.23756       -15.12216    -59231.21380
      -164.61286         1.25778       -15.82633    -59231.21380
      -163.36337         1.24461       -16.35399    -59231.21380
      -163.40157         2.36667       -15.43428    -58538.48715
      -162.08593         1.23227       -16.80963    -58538.48715
      -162.13197         2.52059       -15.38899    -58538.48715
      -163.40157         2.36667       -15.43428    -58538.48715
      -162.08593         1.23227       -16.80963    -58806.88017
      -163.40157         2.36667       -15.43428    -58806.88017
      -163.36337         1.24461       -16.35399    -58806.88017
      -162.08593         1.23227       -16.80963    -58806.88017
       176.10421         0.77063        -3.64178      -140.21494
       176.13019        -0.24402        -4.47438      -140.21494
       177.64369        -0.24147        -3.73919      -140.21494
       176.10421         0.77063        -3.64178      -140.21494
       177.61281         0.74740        -2.90131       931.83441
       177.64369        -0.24147        -3.73919       931.83441
       179.13475        -0.23820        -2.95920       931.83441
       177.61281         0.74740        -2.90131       931.83441
       179.06655         0.74725        -2.03820      2162.18107
       179.13475        -0.23820        -2.95920      2162.18107
       180.60095        -0.23421        -2.13378      2162.18107
       179.06655         0.74725        -2.03820      2162.18107
       180.48301         0.73875        -1.11712      3457.54765
       180.60095        -0.23421        -2.13378      3457.54765
       182.01395        -0.22877        -1.22036      3457.54765
       180.48301         0.73875        -1.11712      3457.54765
       181.84246         0.73903        -0.09108      4832.52695
       182.01395        -0.22877        -1.22036      4832.52695
       183.33786        -0.22122        -0.18239      4832.52695
       181.84246         0.73903        -0.09108      4832.52695
       183.11624         0.69413         1.07376      6192.19275
       183.33786        -0.22122        -0.18239      6192.19275
       184.52611        -0.21092         1.01137      6192.19275
       183.11624         0.69413         1.07376      6192.19275
       184.27762         0.57582         2.41086      7478.58852
       184.52611        -0.21092         1.01137      7478.58852
       185.44682        -0.19653         2.41145      7478.58852
       184.27762         0.57582         2.41086      7478.58852
       185.29319         0.37486         3.85376      8593.43235
       185.44682        -0.19653         2.41145      8593.43235
       186.03241        -0.17804         3.99558      8593.43235
       185.29319         0.37486         3.85376      8593.43235
      -162.43061         3.05824        -7.01968    -72941.58802
      -163.85046         1.36493        -7.59507    -72941.58802
      -162.35391         1.33415        -9.34063    -72941.58802
      -162.43061         3.05824        -7.01968    -72941.58802
      -164.45122         4.03094        -6.46849    -73828.39903
      -165.62167         1.39008        -6.36577    -73828.39903
      -163.85046         1.36493        -7.59507    -73828.39903
      -164.45122         4.03094        -6.46849    -73828.39903
      -166.57332         4.44276        -6.07523    -73677.77703
      -167.78869         1.40702        -5.88960    -73677.77703
      -165.62167         1.39008        -6.36577    -73677.77703
      -166.57332         4.44276        -6.07523    -73677.77703
      -168.90361         4.75809        -5.70363    -73834.36702
      -170.00847         1.42188        -5.58639    -73834.36702
      -167.78869         1.40702        -5.88960    -73834.36702
      -168.90361         4.75809        -5.70363    -73834.36702
      -171.38558         4.98059        -5.35131    -74105.13903
      -172.19219         1.43700        -5.25079    -74105.13903
      -170.00847         1.42188        -5.58639    -74105.13903
      -171.38558         4.98059        -5.35131    -74105.13903
      -173.80842         5.09469        -4.96029    -73889.11908
      -174.38920         1.45198        -4.93084    -73889.11908
      -172.19219         1.43700        -5.25079    -73889.11908
      -173.80842         5.09469        -4.96029    -73889.11908
      -162.44145        14.62809        -5.46747    -81941.91016
      -159.44608        16.11494        -5.44883    -81941.91016
      -159.47029        18.65816        -4.63386    -81941.91016
      -162.45722        17.44815        -4.72415    -81941.91016
      -159.44608        16.11494        -5.44883    -78331.20010
      -156.44292        17.26643        -5.50038    -78331.20010
      -156.47615        19.83203        -4.54281    -78331.20010
      -159.47029        18.65816        -4.63386    -78331.20010
      -156.44292        17.26643        -5.50038    -73007.91524
      -153.42694        18.36922        -5.55214    -73007.91524
      -153.46703        20.94332        -4.45036    -73007.91524
      -156.47615        19.83203        -4.54281    -73007.91524
      -153.42694        18.36922        -5.55214    -66594.46724
      -150.39184        19.40150        -5.60487    -66594.46724
      -150.43524        21.96559        -4.35587    -66594.46724
      -153.46703        20.94332        -4.45036    -66594.46724
      -150.39184        19.40150        -5.60487    -59092.51421
      -147.33129        20.34147        -5.65934    -59092.51421
      -147.37302        22.87237        -4.25870    -59092.51421
      -150.43524        21.96559        -4.35587    -59092.51421
      -147.33129        20.34147        -5.65934    -52378.96660
      -144.23910        21.16775        -5.71629    -52378.96660
      -144.27281        23.63769        -4.15821    -52378.96660
      -147.37302        22.87237        -4.25870    -52378.96660
      -144.23910        21.16775        -5.71629    -47343.24081
      -141.11434        21.87499        -5.77517    -47343.24081
      -141.13390        24.25344        -4.05427    -47343.24081
      -144.27281        23.63769        -4.15821    -47343.24081
      -141.11434        21.87499        -5.77517    -42662.00246
      -137.96302        22.47863        -5.83376    -42662.00246
      -137.96438        24.73468        -3.94739    -42662.00246
      -141.13390        24.25344        -4.05427    -42662.00246
      -137.96302        22.47863        -5.83376    -37302.59488
      -134.79162        22.99560        -5.88974    -37302.59488
      -134.77302        25.09803        -3.83809    -37302.59488
      -137.96438        24.73468        -3.94739    -37302.59488
      -134.79162        22.99560        -5.88974    -31507.76907
      -131.60657        23.44277        -5.94078    -31507.76907
      -131.56847        25.36009        -3.72692    -31507.76907
      -134.77302        25.09803        -3.83809    -31507.76907
      -131.60657        23.44277        -5.94078    -27790.44849
      -128.41433        23.83703        -5.98454    -27790.44849
      -128.35949        25.53750        -3.61443    -27790.44849
      -131.56847        25.36009        -3.72692    -27790.44849
      -128.41433        23.83703        -5.98454    -26773.18126
      -125.22012        24.19178        -6.01871    -26773.18126
      -125.15281        25.64634        -3.50107    -26773.18126
      -128.35949        25.53750        -3.61443    -26773.18126
      -125.22012        24.19178        -6.01871    -26056.55751
      -122.02462        24.50784        -6.04107    -26056.55751
      -121.94880        25.70114        -3.38706    -26056.55751
      -125.15281        25.64634        -3.50107    -26056.55751
      -122.02462        24.50784        -6.04107    -24637.01877
      -118.82750        24.78312        -6.04939    -24637.01877
      -118.74659        25.71606        -3.27257    -24637.01877
      -121.94880        25.70114        -3.38706    -24637.01877
      -118.82750        24.78312        -6.04939    -23140.44820
      -115.62844        25.01559        -6.04144    -23140.44820
      -115.54532        25.70528        -3.15776    -23140.44820
      -118.74659        25.71606        -3.27257    -23140.44820
      -115.62844        25.01559        -6.04144    -23161.81807
      -112.42707        25.20316        -6.01501    -23161.81807
      -112.34410        25.68297        -3.04279    -23161.81807
      -115.54532        25.70528        -3.15776    -23161.81807
      -112.42707        25.20316        -6.01501    -25106.20052
      -109.22314        25.34439        -5.96832    -25106.20052
      -109.14217        25.66203        -2.92781    -25106.20052
      -112.34410        25.68297        -3.04279    -25106.20052
      -109.22314        25.34439        -5.96832    -25725.31664
      -106.01697        25.44342        -5.90372    -25725.31664
      -105.93941        25.64556        -2.81286    -25725.31664
      -109.14217        25.66203        -2.92781    -25725.31664
      -106.01697        25.44342        -5.90372    -24719.07770
      -102.80917        25.50732        -5.82575    -24719.07770
      -102.73609        25.63228        -2.69794    -24719.07770
      -105.93941        25.64556        -2.81286    -24719.07770
      -102.80917        25.50732        -5.82575    -23593.24060
       -99.60039        25.54326        -5.73897    -23593.24060
       -99.53243        25.62082        -2.58303    -23593.24060
      -102.73609        25.63228        -2.69794    -23593.24060
       -99.60039        25.54326        -5.73897    -24321.79786
       -96.39127        25.55837        -5.64793    -24321.79786
       -96.32870        25.60984        -2.46813    -24321.79786
       -99.53243        25.62082        -2.58303    -24321.79786
       -96.39127        25.55837        -5.64793    -26856.39807
       -93.18243        25.55968        -5.55713    -26856.39807
       -93.12510        25.59807        -2.35322    -26856.39807
       -96.32870        25.60984        -2.46813    -26856.39807
       -93.18243        25.55968        -5.55713    -28064.80435
       -89.97412        25.55212        -5.46852    -28064.80435
       -89.92173        25.58502        -2.23829    -28064.80435
       -93.12510        25.59807        -2.35322    -28064.80435
       -89.97412        25.55212        -5.46852    -27580.88701
       -86.76626        25.53815        -5.38130    -27580.88701
       -86.71854        25.57102        -2.12337    -27580.88701
       -89.92173        25.58502        -2.23829    -27580.88701
       -86.76626        25.53815        -5.38130    -27722.45086
       -83.55866        25.52015        -5.29455    -27722.45086
       -83.51544        25.55644        -2.00844    -27722.45086
       -86.71854        25.57102        -2.12337    -27722.45086
       -83.55866        25.52015        -5.29455    -29643.91066
       -80.35118        25.50049        -5.20730    -29643.91066
       -80.31240        25.54162        -1.89350    -29643.91066
       -83.51544        25.55644        -2.00844    -29643.91066
       -80.35118        25.50049        -5.20730    -31954.54315
       -77.14371        25.48154        -5.11862    -31954.54315
       -77.10933        25.52692        -1.77857    -31954.54315
       -80.31240        25.54162        -1.89350    -31954.54315
       -77.14371        25.48154        -5.11862    -32089.09325
       -73.93616        25.46485        -5.02798    -32089.09325
       -73.90616        25.51257        -1.66364    -32089.09325
       -77.10933        25.52692        -1.77857    -32089.09325
       -73.93616        25.46485        -5.02798    -28776.98150
       -70.72844        25.45003        -4.93579    -28776.98150
       -70.70307        25.49850        -1.54871    -28776.98150
       -73.90616        25.51257        -1.66364    -28776.98150
       -70.72844        25.45003        -4.93579    -25093.73090
       -67.52066        25.43646        -4.84254    -25093.73090
       -67.49977        25.48461        -1.43379    -25093.73090
       -70.70307        25.49850        -1.54871    -25093.73090
       -67.52066        25.43646        -4.84254    -21428.07356
       -64.31289        25.42350        -4.74881    -21428.07356
       -64.29657        25.47081        -1.31886    -21428.07356
       -67.49977        25.48461        -1.43379    -21428.07356
       -64.31289        25.42350        -4.74881    -16470.57482
       -61.10521        25.41051        -4.65509    -16470.57482
       -61.09336        25.45701        -1.20394    -16470.57482
       -64.29657        25.47081        -1.31886    -16470.57482
       -61.10521        25.41051        -4.65509     -8622.70752
       -57.89743        25.39697        -4.56181     -8622.70752
       -57.89006        25.44312        -1.08901     -8622.70752
       -61.09336        25.45701        -1.20394     -8622.70752
       -57.89743        25.39697        -4.56181      2264.44156
       -54.68974        25.38287        -4.46878      2264.44156
       -54.68696        25.42914        -0.97408      2264.44156
       -57.89006        25.44312        -1.08901      2264.44156
       -54.68974        25.38287        -4.46878     12290.44104
       -51.48206        25.36841        -4.37562     12290.44104
       -51.48376        25.41512        -0.85915     12290.44104
       -54.68696        25.42914        -0.97408     12290.44104
       -51.48206        25.36841        -4.37562     20786.10034
       -48.27439        25.35377        -4.28196     20786.10034
       -48.28057        25.40106        -0.74423     20786.10034
       -51.48376        25.41512        -0.85915     20786.10034
       -48.27439        25.35377        -4.28196     27777.64432
       -45.06675        25.33911        -4.18741     27777.64432
       -45.07737        25.38700        -0.62930     27777.64432
       -48.28057        25.40106        -0.74423     27777.64432
       -45.06675        25.33911        -4.18741     33450.98113
       -41.85917        25.32462        -4.09160     33450.98113
       -41.87416        25.37295        -0.51437     33450.98113
       -45.07737        25.38700        -0.62930     33450.98113
       -41.85917        25.32462        -4.09160     37336.75675
       -38.65163        25.31031        -3.99422     37336.75675
       -38.67096        25.35893        -0.39944     37336.75675
       -41.87416        25.37295        -0.51437     37336.75675
       -38.65163        25.31031        -3.99422     39409.66087
       -35.44406        25.29612        -3.89499     39409.66087
       -35.46776        25.34493        -0.28451     39409.66087
       -38.67096        25.35893        -0.39944     39409.66087
       -35.44406        25.29612        -3.89499     39607.34688
       -32.23667        25.28200        -3.79362     39607.34688
       -32.26456        25.33093        -0.16959     39607.34688
       -35.46776        25.34493        -0.28451     39607.34688
       -32.23667        25.28200        -3.79362     37645.04433
       -29.02926        25.26787        -3.68985     37645.04433
       -29.06136        25.31693        -0.05466     37645.04433
       -32.26456        25.33093        -0.16959     37645.04433
       -29.02926        25.26787        -3.68985     33486.04826
       -25.82195        25.25364        -3.58342     33486.04826
       -25.85816        25.30294         0.06027     33486.04826
       -29.06136        25.31693        -0.05466     33486.04826
       -25.82195        25.25364        -3.58342     27705.67486
       -22.61484        25.23935        -3.47439     27705.67486
       -22.65496        25.28894         0.17520     27705.67486
       -25.85816        25.30294         0.06027     27705.67486
       -22.61484        25.23935        -3.47439     23866.98832
       -19.40770        25.22506        -3.36330     23866.98832
       -19.45177        25.27493         0.29012     23866.98832
       -22.65496        25.28894         0.17520     23866.98832
       -19.40770        25.22506        -3.36330     21508.53328
       -16.20061        25.21091        -3.25076     21508.53328
       -16.24857        25.26093         0.40505     21508.53328
       -19.45177        25.27493         0.29012     21508.53328
       -16.20061        25.21091        -3.25076     19828.46944
       -12.99364        25.19700        -3.13737     19828.46944
       -13.04537        25.24691         0.51998     19828.46944
       -16.24857        25.26093         0.40505     19828.46944
       -12.99364        25.19700        -3.13737     17991.59571
        -9.78659        25.18342        -3.02369     17991.59571
        -9.84217        25.23290         0.63491     17991.59571
       -13.04537        25.24691         0.51998     17991.59571
        -9.78659        25.18342        -3.02369     16184.20906
        -6.57953        25.17021        -2.91009     16184.20906
        -6.63897        25.21889         0.74983     16184.20906
        -9.84217        25.23290         0.63491     16184.20906
        -6.57953        25.17021        -2.91009     15681.52091
        -3.37249        25.15706        -2.79622     15681.52091
        -3.43576        25.20489         0.86476     15681.52091
        -6.63897        25.21889         0.74983     15681.52091
        -3.37249        25.15706        -2.79622     15529.59314
        -0.16547        25.14366        -2.68164     15529.59314
        -0.23256        25.19088         0.97969     15529.59314
        -3.43576        25.20489         0.86476     15529.59314
        -0.16547        25.14366        -2.68164     15018.66902
         3.04140        25.12965        -2.56585     15018.66902
         2.97064        25.17687         1.09462     15018.66902
        -0.23256        25.19088         0.97969     15018.66902
         3.04140        25.12965        -2.56585     13808.67688
         6.24831        25.11471        -2.44837     13808.67688
         6.17384        25.16286         1.20954     13808.67688
         2.97064        25.17687         1.09462     13808.67688
         6.24831        25.11471        -2.44837     11503.99650
         9.45504        25.09864        -2.32877     11503.99650
         9.37693        25.14886         1.32447     11503.99650
         6.17384        25.16286         1.20954     11503.99650
         9.45504        25.09864        -2.32877      7828.25719
        12.66178        25.08215        -2.20671      7828.25719
        12.58014        25.13485         1.43939      7828.25719
         9.37693        25.14886         1.32447      7828.25719
        12.66178        25.08215        -2.20671      3633.45736
        15.86842        25.06636        -2.08195      3633.45736
        15.78334        25.12084         1.55432      3633.45736
        12.58014        25.13485         1.43939      3633.45736
        15.86842        25.06636        -2.08195      -103.48466
        19.07487        25.05238        -1.95421      -103.48466
        18.98654        25.10684         1.66925      -103.48466
        15.78334        25.12084         1.55432      -103.48466
        19.07487        25.05238        -1.95421     -2015.63044
        22.28131        25.04132        -1.82324     -2015.63044
        22.18974        25.09283         1.78418     -2015.63044
        18.98654        25.10684         1.66925     -2015.63044
        22.28131        25.04132        -1.82324     -2920.78850
        25.48754        25.03415        -1.68879     -2920.78850
        25.39294        25.07882         1.89910     -2920.78850
        22.18974        25.09283         1.78418     -2920.78850
        25.48754        25.03415        -1.68879     -2975.05718
        28.69376        25.02927        -1.55102     -2975.05718
        28.59614        25.06481         2.01403     -2975.05718
        25.39294        25.07882         1.89910     -2975.05718
        28.69376        25.02927        -1.55102     -1234.93821
        31.89987        25.02281        -1.41044     -1234.93821
        31.79934        25.05081         2.12896     -1234.93821
        28.59614        25.06481         2.01403     -1234.93821
        31.89987        25.02281        -1.41044      2383.49303
        35.10568        25.01081        -1.26755      2383.49303
        35.00253        25.03680         2.24389      2383.49303
        31.79934        25.05081         2.12896      2383.49303
        35.10568        25.01081        -1.26755      8289.13929
        38.31139        24.98932        -1.12289      8289.13929
        38.20573        25.02279         2.35881      8289.13929
        35.00253        25.03680         2.24389      8289.13929
        38.31139        24.98932        -1.12289     14664.45803
        41.51679        24.95440        -0.97697     14664.45803
        41.40893        25.00877         2.47374     14664.45803
        38.20573        25.02279         2.35881     14664.45803
        41.51679        24.95440        -0.97697     20839.44100
        44.72211        24.90450        -0.83013     20839.44100
        44.61213        24.99477         2.58867     20839.44100
        41.40893        25.00877         2.47374     20839.44100
        44.72211        24.90450        -0.83013     26252.86238
        47.92716        24.84239        -0.68251     26252.86238
        47.81533        24.98077         2.70360     26252.86238
        44.61213        24.99477         2.58867     26252.86238
        47.92716        24.84239        -0.68251     29922.62562
        51.13204        24.77127        -0.53416     29922.62562
        51.01854        24.96676         2.81853     29922.62562
        47.81533        24.98077         2.70360     29922.62562
        51.13204        24.77127        -0.53416     31995.31762
        54.33688        24.69436        -0.38515     31995.31762
        54.22163        24.95276         2.93345     31995.31762
        51.01854        24.96676         2.81853     31995.31762
        54.33688        24.69436        -0.38515     32864.25375
        57.54168        24.61489        -0.23555     32864.25375
        57.42483        24.93875         3.04838     32864.25375