 VARIABLES= "X","Y","Z","PRESS"  
ZONE N=                                       27712 E=                             6928 F=FEPOINT, ET=QUADRILATERAL
      -167.63329         3.60958        -6.45620      2117.48408
      -166.32168         4.38553        -6.54697      2117.48408
      -166.20385         3.59547        -5.92835      2117.48408
      -167.63329         3.60958        -6.45620      2117.48408
      -166.32168         4.38553        -6.54697      1523.04664
      -167.63329         3.60958        -6.45620      1523.04664
      -167.62605         4.20500        -6.74936      1523.04664
      -166.32168         4.38553        -6.54697      1523.04664
      -166.20385         3.59547        -5.92835      2873.22603
      -165.00124         4.46936        -6.35717      2873.22603
      -164.79851         3.58245        -5.31649      2873.22603
      -166.20385         3.59547        -5.92835      2873.22603
      -165.00124         4.46936        -6.35717      2596.51389
      -166.20385         3.59547        -5.92835      2596.51389
      -166.32168         4.38553        -6.54697      2596.51389
      -165.00124         4.46936        -6.35717      2596.51389
      -164.79851         3.58245        -5.31649      3149.88696
      -163.73135         4.41282        -6.02765      3149.88696
      -163.56709         3.57386        -4.47303      3149.88696
      -164.79851         3.58245        -5.31649      3149.88696
      -163.73135         4.41282        -6.02765      3500.66975
      -164.79851         3.58245        -5.31649      3500.66975
      -165.00124         4.46936        -6.35717      3500.66975
      -163.73135         4.41282        -6.02765      3500.66975
      -163.56709         3.57386        -4.47303      4037.68622
      -162.74565         4.13546        -5.14899      4037.68622
      -162.74847         3.57511        -3.15353      4037.68622
      -163.56709         3.57386        -4.47303      4037.68622
      -162.74565         4.13546        -5.14899      2923.62791
      -163.56709         3.57386        -4.47303      2923.62791
      -163.73135         4.41282        -6.02765      2923.62791
      -162.74565         4.13546        -5.14899      2923.62791
      -167.62605         4.20500        -6.74936      2389.23770
      -166.38185         4.56401        -7.50585      2389.23770
      -166.32168         4.38553        -6.54697      2389.23770
      -167.62605         4.20500        -6.74936      2389.23770
      -166.38185         4.56401        -7.50585      2555.59871
      -167.62605         4.20500        -6.74936      2555.59871
      -167.62405         4.46235        -7.36401      2555.59871
      -166.38185         4.56401        -7.50585      2555.59871
      -166.32168         4.38553        -6.54697      3485.66435
      -165.13877         4.68922        -7.62681      3485.66435
      -165.00124         4.46936        -6.35717      3485.66435
      -166.32168         4.38553        -6.54697      3485.66435
      -165.13877         4.68922        -7.62681      2906.07814
      -166.32168         4.38553        -6.54697      2906.07814
      -166.38185         4.56401        -7.50585      2906.07814
      -165.13877         4.68922        -7.62681      2906.07814
      -165.00124         4.46936        -6.35717      4530.35978
      -163.89039         4.75906        -7.64702      4530.35978
      -163.73135         4.41282        -6.02765      4530.35978
      -165.00124         4.46936        -6.35717      4530.35978
      -163.89039         4.75906        -7.64702      3725.82647
      -165.00124         4.46936        -6.35717      3725.82647
      -165.13877         4.68922        -7.62681      3725.82647
      -163.89039         4.75906        -7.64702      3725.82647
      -163.73135         4.41282        -6.02765      4682.04522
      -162.74239         4.72740        -7.13362      4682.04522
      -162.74565         4.13546        -5.14899      4682.04522
      -163.73135         4.41282        -6.02765      4682.04522
      -162.74239         4.72740        -7.13362      3720.78011
      -163.73135         4.41282        -6.02765      3720.78011
      -163.89039         4.75906        -7.64702      3720.78011
      -162.74239         4.72740        -7.13362      3720.78011
      -167.62405         4.46235        -7.36401       865.24052
      -166.44086         4.35519        -8.42227       865.24052
      -166.38185         4.56401        -7.50585       865.24052
      -167.62405         4.46235        -7.36401       865.24052
      -166.44086         4.35519        -8.42227       -80.88020
      -167.62405         4.46235        -7.36401       -80.88020
      -167.62904         4.19396        -7.97386       -80.88020
      -166.44086         4.35519        -8.42227       -80.88020
      -166.38185         4.56401        -7.50585      2398.19608
      -165.24169         4.52626        -8.83519      2398.19608
      -165.13877         4.68922        -7.62681      2398.19608
      -166.38185         4.56401        -7.50585      2398.19608
      -165.24169         4.52626        -8.83519      1226.78936
      -166.38185         4.56401        -7.50585      1226.78936
      -166.44086         4.35519        -8.42227      1226.78936
      -165.24169         4.52626        -8.83519      1226.78936
      -165.13877         4.68922        -7.62681      3502.30100
      -164.01746         4.64607        -9.19356      3502.30100
      -163.89039         4.75906        -7.64702      3502.30100
      -165.13877         4.68922        -7.62681      3502.30100
      -164.01746         4.64607        -9.19356      2625.65284
      -165.13877         4.68922        -7.62681      2625.65284
      -165.24169         4.52626        -8.83519      2625.65284
      -164.01746         4.64607        -9.19356      2625.65284
      -163.89039         4.75906        -7.64702      4591.44153
      -162.74637         4.78867        -9.19619      4591.44153
      -162.74239         4.72740        -7.13362      4591.44153
      -163.89039         4.75906        -7.64702      4591.44153
      -162.74637         4.78867        -9.19619      3424.93141
      -163.89039         4.75906        -7.64702      3424.93141
      -164.01746         4.64607        -9.19356      3424.93141
      -162.74637         4.78867        -9.19619      3424.93141
      -167.62904         4.19396        -7.97386      1504.88822
      -166.45571         3.57136        -8.91971      1504.88822
      -166.44086         4.35519        -8.42227      1504.88822
      -167.62904         4.19396        -7.97386      1504.88822
      -166.45571         3.57136        -8.91971      3343.41208
      -167.62904         4.19396        -7.97386      3343.41208
      -167.63769         3.59312        -8.25627      3343.41208
      -166.45571         3.57136        -8.91971      3343.41208
      -166.44086         4.35519        -8.42227      2372.87582
      -165.25256         3.54968        -9.54386      2372.87582
      -165.24169         4.52626        -8.83519      2372.87582
      -166.44086         4.35519        -8.42227      2372.87582
      -165.25256         3.54968        -9.54386      2703.91570
      -166.44086         4.35519        -8.42227      2703.91570
      -166.45571         3.57136        -8.91971      2703.91570
      -165.25256         3.54968        -9.54386      2703.91570
      -165.24169         4.52626        -8.83519      3372.95236
      -164.02499         3.52813       -10.11862      3372.95236
      -164.01746         4.64607        -9.19356      3372.95236
      -165.24169         4.52626        -8.83519      3372.95236
      -164.02499         3.52813       -10.11862      3591.74866
      -165.24169         4.52626        -8.83519      3591.74866
      -165.25256         3.54968        -9.54386      3591.74866
      -164.02499         3.52813       -10.11862      3591.74866
      -164.01746         4.64607        -9.19356      4999.54823
      -162.76673         3.50682       -10.62253      4999.54823
      -162.74637         4.78867        -9.19619      4999.54823
      -164.01746         4.64607        -9.19356      4999.54823
      -162.76673         3.50682       -10.62253      3855.77997
      -164.01746         4.64607        -9.19356      3855.77997
      -164.02499         3.52813       -10.11862      3855.77997
      -162.76673         3.50682       -10.62253      3855.77997
       175.47244         0.02720       -10.41230     34198.37242
       175.45705        -0.98365       -11.24941     34198.37242
       176.99662        -0.99786       -10.57316     34198.37242
       175.47244         0.02720       -10.41230     34198.37242
       177.00707        -0.01277        -9.73071     34958.09777
       176.99662        -0.99786       -10.57316     34958.09777
       178.51548        -1.01137        -9.85131     34958.09777
       177.00707        -0.01277        -9.73071     34958.09777
       178.49181        -0.02978        -8.92444     34388.07711
       178.51548        -1.01137        -9.85131     34388.07711
       180.01127        -1.02416        -9.08314     34388.07711
       178.49181        -0.02978        -8.92444     34388.07711
       179.94144        -0.05509        -8.05891     33523.30595
       180.01127        -1.02416        -9.08314     33523.30595
       181.45728        -1.03546        -8.22506     33523.30595
       179.94144        -0.05509        -8.05891     33523.30595
       181.33823        -0.07162        -7.08635     32710.28906
       181.45728        -1.03546        -8.22506     32710.28906
       182.81910        -1.04447        -7.23919     32710.28906
       181.33823        -0.07162        -7.08635     32710.28906
       182.65433        -0.13324        -5.97211     31901.90757
       182.81910        -1.04447        -7.23919     31901.90757
       184.05141        -1.05029        -6.09254     31901.90757
       182.65433        -0.13324        -5.97211     31901.90757
       183.86407        -0.26813        -4.68190     31130.75079
       184.05141        -1.05029        -6.09254     31130.75079
       185.02444        -1.05068        -4.72963     31130.75079
       183.86407        -0.26813        -4.68190     31130.75079
       184.93144        -0.48489        -3.28086     30553.34802
       185.02444        -1.05068        -4.72963     30553.34802
       185.66986        -1.04493        -3.17009     30553.34802
       184.93144        -0.48489        -3.28086     30553.34802
      -162.72026         5.28866        -0.82497       589.65157
      -164.17616         3.61057        -1.35308       589.65157
      -162.74847         3.57511        -3.15353       589.65157
      -162.72026         5.28866        -0.82497       589.65157
      -164.70799         6.27634        -0.19276      1756.33149
      -165.89789         3.64528        -0.05769      1756.33149
      -164.17616         3.61057        -1.35308      1756.33149
      -164.70799         6.27634        -0.19276      1756.33149
      -166.80838         6.70479         0.28302      4109.26906
      -168.04371         3.67886         0.50077      4109.26906
      -165.89789         3.64528        -0.05769      4109.26906
      -166.80838         6.70479         0.28302      4109.26906
      -169.11843         7.03868         0.74469      4028.87204
      -170.24883         3.71166         0.88853      4028.87204
      -168.04371         3.67886         0.50077      4028.87204
      -169.11843         7.03868         0.74469      4028.87204
      -171.58156         7.28117         1.19248      2986.52107
      -172.41670         3.74425         1.30725      2986.52107
      -170.24883         3.71166         0.88853      2986.52107
      -171.58156         7.28117         1.19248      2986.52107
      -173.98520         7.41456         1.67615      1008.41761
      -174.59845         3.77688         1.71086      1008.41761
      -172.41670         3.74425         1.30725      1008.41761
      -173.98520         7.41456         1.67615      1008.41761
      -162.56271        16.85082         0.77916      3004.10545
      -159.55658        18.31137         0.69010      3004.10545
      -159.52567        20.85082         1.51664      3004.10545
      -162.52350        19.66737         1.53511      3004.10545
      -159.55658        18.31137         0.69010      2475.05610
      -156.54850        19.43684         0.52909      2475.05610
      -156.52095        21.99806         1.49848      2475.05610
      -159.52567        20.85082         1.51664      2475.05610
      -156.54850        19.43684         0.52909       574.35670
      -153.52810        20.51350         0.36716       574.35670
      -153.50182        23.08259         1.48085       574.35670
      -156.52095        21.99806         1.49848       574.35670
      -153.52810        20.51350         0.36716      -923.48621
      -150.48930        21.51949         0.20320      -923.48621
      -150.46080        24.07788         1.46398      -923.48621
      -153.50182        23.08259         1.48085      -923.48621
      -150.48930        21.51949         0.20320     -1850.52152
      -147.42602        22.43295         0.03611     -1850.52152
      -147.39038        24.95742         1.44809     -1850.52152
      -150.46080        24.07788         1.46398     -1850.52152
      -147.42602        22.43295         0.03611     -3210.30362
      -144.33231        23.23248        -0.13521     -3210.30362
      -144.28323        25.69515         1.43339     -3210.30362
      -147.39038        24.95742         1.44809     -3210.30362
      -144.33231        23.23248        -0.13521     -4673.81376
      -141.20727        23.91267        -0.31025     -4673.81376
      -141.13872        26.28295         1.41997     -4673.81376
      -144.28323        25.69515         1.43339     -4673.81376
      -141.20727        23.91267        -0.31025     -5778.63400
      -138.05668        24.48905        -0.48650     -5778.63400
      -137.96479        26.73597         1.40770     -5778.63400
      -141.13872        26.28295         1.41997     -5778.63400
      -138.05668        24.48905        -0.48650     -5315.04532
      -134.88674        24.97856        -0.66131     -5315.04532
      -134.77006        27.07091         1.39645     -5315.04532
      -137.96479        26.73597         1.40770     -5315.04532
      -134.88674        24.97856        -0.66131     -3143.03552
      -131.70365        25.39814        -0.83203     -3143.03552
      -131.56306        27.30443         1.38609     -3143.03552
      -134.77006        27.07091         1.39645     -3143.03552
      -131.70365        25.39814        -0.83203      -645.33375
      -128.51359        25.76471        -0.99601      -645.33375
      -128.35237        27.45326         1.37650      -645.33375
      -131.56306        27.30443         1.38609      -645.33375
      -128.51359        25.76471        -0.99601      2305.71184
      -125.32158        26.09172        -1.15067      2305.71184
      -125.14459        27.53354         1.36753      2305.71184
      -128.35237        27.45326         1.37650      2305.71184
      -125.32158        26.09172        -1.15067      6866.99368
      -122.12820        26.37996        -1.29377      6866.99368
      -121.93997        27.55979         1.35907      6866.99368
      -125.14459        27.53354         1.36753      6866.99368
      -122.12820        26.37996        -1.29377     13640.13475
      -118.93304        26.62734        -1.42309     13640.13475
      -118.73750        27.54618         1.35098     13640.13475
      -121.93997        27.55979         1.35907     13640.13475
      -118.93304        26.62734        -1.42309     21869.26639
      -115.73573        26.83181        -1.53645     21869.26639
      -115.53621        27.50689         1.34312     21869.26639
      -118.73750        27.54618         1.35098     21869.26639
      -115.73573        26.83181        -1.53645     29798.22024
      -112.53584        26.99128        -1.63164     29798.22024
      -112.33506        27.45606         1.33537     29798.22024
      -115.53621        27.50689         1.34312     29798.22024
      -112.53584        26.99128        -1.63164     36331.38242
      -109.33304        27.10429        -1.70692     36331.38242
      -109.13319        27.40659         1.32760     36331.38242
      -112.33506        27.45606         1.33537     36331.38242
      -109.33304        27.10429        -1.70692     42806.92271
      -106.12772        27.17499        -1.76460     42806.92271
      -105.93045        27.36159         1.31979     42806.92271
      -109.13319        27.40659         1.32760     42806.92271
      -106.12772        27.17499        -1.76460     48575.91028
      -102.92061        27.21049        -1.80915     48575.91028
      -102.72712        27.31976         1.31195     48575.91028
      -105.93045        27.36159         1.31979     48575.91028
      -102.92061        27.21049        -1.80915     51982.23200
       -99.71244        27.21798        -1.84507     51982.23200
       -99.52344        27.27976         1.30410     51982.23200
      -102.72712        27.31976         1.31195     51982.23200
       -99.71244        27.21798        -1.84507     51536.22596
       -96.50396        27.20461        -1.87685     51536.22596
       -96.31969        27.24024         1.29624     51536.22596
       -99.52344        27.27976         1.30410     51536.22596
       -96.50396        27.20461        -1.87685     46772.61624
       -93.29591        27.17745        -1.90892     46772.61624
       -93.11607        27.19993         1.28838     46772.61624
       -96.31969        27.24024         1.29624     46772.61624
       -93.29591        27.17745        -1.90892     43024.57983
       -90.08854        27.14143        -1.94319     43024.57983
       -89.91268        27.15834         1.28054     43024.57983
       -93.11607        27.19993         1.28838     43024.57983
       -90.08854        27.14143        -1.94319     40626.79620
       -86.88175        27.09902        -1.97888     40626.79620
       -86.70950        27.11580         1.27271     40626.79620
       -89.91268        27.15834         1.28054     40626.79620
       -86.88175        27.09902        -1.97888     36520.42643
       -83.67526        27.05258        -2.01503     36520.42643
       -83.50640        27.07268         1.26488     36520.42643
       -86.70950        27.11580         1.27271     36520.42643
       -83.67526        27.05258        -2.01503     28858.52116
       -80.46890        27.00448        -2.05069     28858.52116
       -80.30337        27.02933         1.25706     28858.52116
       -83.50640        27.07268         1.26488     28858.52116
       -80.46890        27.00448        -2.05069     19278.03604
       -77.26249        26.95708        -2.08492     19278.03604
       -77.10030        26.98610         1.24923     19278.03604
       -80.30337        27.02933         1.25706     19278.03604
       -77.26249        26.95708        -2.08492     15654.27125
       -74.05590        26.91193        -2.11719     15654.27125
       -73.89714        26.94320         1.24140     15654.27125
       -77.10030        26.98610         1.24923     15654.27125
       -74.05590        26.91193        -2.11719     18075.11650
       -70.84906        26.86864        -2.14790     18075.11650
       -70.69405        26.90060         1.23357     18075.11650
       -73.89714        26.94320         1.24140     18075.11650
       -70.84906        26.86864        -2.14790     19166.72501
       -67.64210        26.82660        -2.17755     19166.72501
       -67.49075        26.85817         1.22574     19166.72501
       -70.69405        26.90060         1.23357     19166.72501
       -67.64210        26.82660        -2.17755     16242.62024
       -64.43513        26.78516        -2.20672     16242.62024
       -64.28755        26.81584         1.21790     16242.62024
       -67.49075        26.85817         1.22574     16242.62024
       -64.43513        26.78516        -2.20672     12224.79838
       -61.22827        26.74370        -2.23589     12224.79838
       -61.08434        26.77349         1.21007     12224.79838
       -64.28755        26.81584         1.21790     12224.79838
       -61.22827        26.74370        -2.23589     13822.45168
       -58.02131        26.70168        -2.26552     13822.45168
       -57.88104        26.73107         1.20223     13822.45168
       -61.08434        26.77349         1.21007     13822.45168
       -58.02131        26.70168        -2.26552     20812.91865
       -54.81446        26.65912        -2.29538     20812.91865
       -54.67794        26.68855         1.19440     20812.91865
       -57.88104        26.73107         1.20223     20812.91865
       -54.81446        26.65912        -2.29538     23252.57465
       -51.60762        26.61618        -2.32513     23252.57465
       -51.47474        26.64599         1.18657     23252.57465
       -54.67794        26.68855         1.19440     23252.57465
       -51.60762        26.61618        -2.32513     20166.01467
       -48.40078        26.57306        -2.35437     20166.01467
       -48.27154        26.60339         1.17874     20166.01467
       -51.47474        26.64599         1.18657     20166.01467
       -48.40078        26.57306        -2.35437     16179.18912
       -45.19393        26.52993        -2.38273     16179.18912
       -45.06834        26.56079         1.17090     16179.18912
       -48.27154        26.60339         1.17874     16179.18912
       -45.19393        26.52993        -2.38273     16565.44822
       -41.98708        26.48695        -2.40982     16565.44822
       -41.86514        26.51821         1.16307     16565.44822
       -45.06834        26.56079         1.17090     16565.44822
       -41.98708        26.48695        -2.40982     21610.20672
       -38.78022        26.44415        -2.43534     21610.20672
       -38.66194        26.47565         1.15524     21610.20672
       -41.86514        26.51821         1.16307     21610.20672
       -38.78022        26.44415        -2.43534     23904.99728
       -35.57326        26.40147        -2.45901     23904.99728
       -35.45874        26.43311         1.14741     23904.99728
       -38.66194        26.47565         1.15524     23904.99728
       -35.57326        26.40147        -2.45901     24167.35432
       -32.36639        26.35884        -2.48055     24167.35432
       -32.25554        26.39058         1.13957     24167.35432
       -35.45874        26.43311         1.14741     24167.35432
       -32.36639        26.35884        -2.48055     25768.91215
       -29.15942        26.31618        -2.49969     25768.91215
       -29.05234        26.34804         1.13174     25768.91215
       -32.25554        26.39058         1.13957     25768.91215
       -29.15942        26.31618        -2.49969     30850.90864
       -25.95244        26.27342        -2.51616     30850.90864
       -25.84913        26.30550         1.12391     30850.90864
       -29.05234        26.34804         1.13174     30850.90864
       -25.95244        26.27342        -2.51616     38629.79740
       -22.74557        26.23058        -2.53003     38629.79740
       -22.64593        26.26297         1.11608     38629.79740
       -25.84913        26.30550         1.12391     38629.79740
       -22.74557        26.23058        -2.53003     45972.58969
       -19.53858        26.18774        -2.54185     45972.58969
       -19.44275        26.22042         1.10824     45972.58969
       -22.64593        26.26297         1.11608     45972.58969
       -19.53858        26.18774        -2.54185     52492.95251
       -16.33158        26.14503        -2.55222     52492.95251
       -16.23955        26.17788         1.10041     52492.95251
       -19.44275        26.22042         1.10824     52492.95251
       -16.33158        26.14503        -2.55222     57976.22488
       -13.12468        26.10255        -2.56172     57976.22488
       -13.03634        26.13532         1.09258     57976.22488
       -16.23955        26.17788         1.10041     57976.22488
       -13.12468        26.10255        -2.56172     61896.48571
        -9.91767        26.06041        -2.57095     61896.48571
        -9.83314        26.09278         1.08475     61896.48571
       -13.03634        26.13532         1.09258     61896.48571
        -9.91767        26.06041        -2.57095     64093.54760
        -6.71067        26.01864        -2.58025     64093.54760
        -6.62994        26.05023         1.07692     64093.54760
        -9.83314        26.09278         1.08475     64093.54760
        -6.71067        26.01864        -2.58025     65390.21046
        -3.50366        25.97692        -2.58929     65390.21046
        -3.42674        26.00769         1.06908     65390.21046
        -6.62994        26.05023         1.07692     65390.21046
        -3.50366        25.97692        -2.58929     65578.72773
        -0.29665        25.93495        -2.59760     65578.72773
        -0.22354        25.96514         1.06125     65578.72773
        -3.42674        26.00769         1.06908     65578.72773
        -0.29665        25.93495        -2.59760     64197.84055
         2.91025        25.89237        -2.60472     64197.84055
         2.97966        25.92260         1.05342     64197.84055
        -0.22354        25.96514         1.06125     64197.84055
         2.91025        25.89237        -2.60472     61405.03808
         6.11724        25.84885        -2.61015     61405.03808
         6.18286        25.88005         1.04559     61405.03808
         2.97966        25.92260         1.05342     61405.03808
         6.11724        25.84885        -2.61015     58488.08900
         9.32412        25.80418        -2.61346     58488.08900
         9.38596        25.83751         1.03775     58488.08900
         6.18286        25.88005         1.04559     58488.08900
         9.32412        25.80418        -2.61346     56898.19210
        12.53110        25.75909        -2.61432     56898.19210
        12.58916        25.79497         1.02992     56898.19210
         9.38596        25.83751         1.03775     56898.19210
        12.53110        25.75909        -2.61432     56581.16147
        15.73810        25.71469        -2.61247     56581.16147
        15.79236        25.75242         1.02209     56581.16147
        12.58916        25.79497         1.02992     56581.16147
        15.73810        25.71469        -2.61247     57775.99445
        18.94504        25.67208        -2.60763     57775.99445
        18.99556        25.70988         1.01426     57775.99445
        15.79236        25.75242         1.02209     57775.99445
        18.94504        25.67208        -2.60763     60085.45330
        22.15212        25.63238        -2.59956     60085.45330
        22.19876        25.66733         1.00642     60085.45330
        18.99556        25.70988         1.01426     60085.45330
        22.15212        25.63238        -2.59956     62539.21912
        25.35914        25.59654        -2.58798     62539.21912
        25.40196        25.62479         0.99859     62539.21912
        22.19876        25.66733         1.00642     62539.21912
        25.35914        25.59654        -2.58798     64141.96529
        28.56632        25.56299        -2.57308     64141.96529
        28.60517        25.58224         0.99076     64141.96529
        25.40196        25.62479         0.99859     64141.96529
        28.56632        25.56299        -2.57308     64264.20879
        31.77348        25.52784        -2.55536     64264.20879
        31.80837        25.53970         0.98293     64264.20879
        28.60517        25.58224         0.99076     64264.20879
        31.77348        25.52784        -2.55536     63550.52302
        34.98037        25.48716        -2.53537     63550.52302
        35.01155        25.49715         0.97509     63550.52302
        31.80837        25.53970         0.98293     63550.52302
        34.98037        25.48716        -2.53537     61431.25675
        38.18714        25.43695        -2.51364     61431.25675
        38.21475        25.45461         0.96726     61431.25675
        35.01155        25.49715         0.97509     61431.25675
        38.18714        25.43695        -2.51364     57110.78671
        41.39352        25.37333        -2.49070     57110.78671
        41.41796        25.41205         0.95943     57110.78671
        38.21475        25.45461         0.96726     57110.78671
        41.39352        25.37333        -2.49070     50601.32160
        44.59972        25.29473        -2.46692     50601.32160
        44.62116        25.36951         0.95160     50601.32160
        41.41796        25.41205         0.95943     50601.32160
        44.59972        25.29473        -2.46692     42533.87438
        47.80556        25.20390        -2.44240     42533.87438
        47.82436        25.32697         0.94376     42533.87438
        44.62116        25.36951         0.95160     42533.87438
        47.80556        25.20390        -2.44240     33824.32821
        51.01117        25.10407        -2.41719     33824.32821
        51.02756        25.28442         0.93593     33824.32821
        47.82436        25.32697         0.94376     33824.32821
        51.01117        25.10407        -2.41719     25292.73613
        54.21671        24.99845        -2.39134     25292.73613
        54.23065        25.24188         0.92810     25292.73613
        51.02756        25.28442         0.93593     25292.73613
        54.21671        24.99845        -2.39134     18865.07806
        57.42222        24.89026        -2.36492     18865.07806
        57.43386        25.19934         0.92027     18865.07806