 VARIABLES= "X","Y","Z","PRESS"  
ZONE N=                                       27712 E=                             6928 F=FEPOINT, ET=QUADRILATERAL
      -167.33030        -3.17272        -7.05996    -15807.09380
      -166.03275        -2.36982        -7.11221    -15807.09380
      -165.91269        -3.16471        -6.50032    -15807.09380
      -167.33030        -3.17272        -7.05996    -15807.09380
      -166.03275        -2.36982        -7.11221    -16167.13774
      -167.33030        -3.17272        -7.05996    -16167.13774
      -167.32859        -2.57384        -7.34592    -16167.13774
      -166.03275        -2.36982        -7.11221    -16167.13774
      -165.91269        -3.16471        -6.50032    -13474.26367
      -164.71861        -2.26200        -6.89185    -13474.26367
      -164.52105        -3.15711        -5.85721    -13474.26367
      -165.91269        -3.16471        -6.50032    -13474.26367
      -164.71861        -2.26200        -6.89185    -13176.49227
      -165.91269        -3.16471        -6.50032    -13176.49227
      -166.03275        -2.36982        -7.11221    -13176.49227
      -164.71861        -2.26200        -6.89185    -13176.49227
      -164.52105        -3.15711        -5.85721    -12216.38841
      -163.45527        -2.29719        -6.53458    -12216.38841
      -163.30847        -3.15135        -4.98638    -12216.38841
      -164.52105        -3.15711        -5.85721    -12216.38841
      -163.45527        -2.29719        -6.53458    -10862.36609
      -164.52105        -3.15711        -5.85721    -10862.36609
      -164.71861        -2.26200        -6.89185    -10862.36609
      -163.45527        -2.29719        -6.53458    -10862.36609
      -163.30847        -3.15135        -4.98638    -14205.77948
      -162.48370        -2.56542        -5.63722    -14205.77948
      -162.51927        -3.14973        -3.64872    -14205.77948
      -163.30847        -3.15135        -4.98638    -14205.77948
      -162.48370        -2.56542        -5.63722    -11647.54990
      -163.30847        -3.15135        -4.98638    -11647.54990
      -163.45527        -2.29719        -6.53458    -11647.54990
      -162.48370        -2.56542        -5.63722    -11647.54990
      -167.32859        -2.57384        -7.34592    -13906.66420
      -166.07533        -2.18102        -8.07018    -13906.66420
      -166.03275        -2.36982        -7.11221    -13906.66420
      -167.32859        -2.57384        -7.34592    -13906.66420
      -166.07533        -2.18102        -8.07018    -15273.91035
      -167.32859        -2.57384        -7.34592    -15273.91035
      -167.31821        -2.30911        -7.95740    -15273.91035
      -166.07533        -2.18102        -8.07018    -15273.91035
      -166.03275        -2.36982        -7.11221    -11851.30825
      -164.83250        -2.02962        -8.16178    -11851.30825
      -164.71861        -2.26200        -6.89185    -11851.30825
      -166.03275        -2.36982        -7.11221    -11851.30825
      -164.83250        -2.02962        -8.16178    -12701.00819
      -166.03275        -2.36982        -7.11221    -12701.00819
      -166.07533        -2.18102        -8.07018    -12701.00819
      -164.83250        -2.02962        -8.16178    -12701.00819
      -164.71861        -2.26200        -6.89185     -9864.67775
      -163.58549        -1.93468        -8.15319     -9864.67775
      -163.45527        -2.29719        -6.53458     -9864.67775
      -164.71861        -2.26200        -6.89185     -9864.67775
      -163.58549        -1.93468        -8.15319    -10593.28208
      -164.71861        -2.26200        -6.89185    -10593.28208
      -164.83250        -2.02962        -8.16178    -10593.28208
      -163.58549        -1.93468        -8.15319    -10593.28208
      -163.45527        -2.29719        -6.53458     -9195.43275
      -162.44856        -1.94965        -7.61451     -9195.43275
      -162.48370        -2.56542        -5.63722     -9195.43275
      -163.45527        -2.29719        -6.53458     -9195.43275
      -162.44856        -1.94965        -7.61451     -8985.76689
      -163.45527        -2.29719        -6.53458     -8985.76689
      -163.58549        -1.93468        -8.15319     -8985.76689
      -162.44856        -1.94965        -7.61451     -8985.76689
      -167.31821        -2.30911        -7.95740    -15915.81323
      -166.10988        -2.37987        -8.99023    -15915.81323
      -166.07533        -2.18102        -8.07018    -15915.81323
      -167.31821        -2.30911        -7.95740    -15915.81323
      -166.10988        -2.37987        -8.99023    -14392.55379
      -167.31821        -2.30911        -7.95740    -14392.55379
      -167.30433        -2.57013        -8.57042    -14392.55379
      -166.10988        -2.37987        -8.99023    -14392.55379
      -166.07533        -2.18102        -8.07018    -12561.18282
      -164.90543        -2.17997        -9.37419    -12561.18282
      -164.83250        -2.02962        -8.16178    -12561.18282
      -166.07533        -2.18102        -8.07018    -12561.18282
      -164.90543        -2.17997        -9.37419    -13327.81472
      -166.07533        -2.18102        -8.07018    -13327.81472
      -166.10988        -2.37987        -8.99023    -13327.81472
      -164.90543        -2.17997        -9.37419    -13327.81472
      -164.83250        -2.02962        -8.16178    -10282.53313
      -163.67609        -2.03147        -9.70365    -10282.53313
      -163.58549        -1.93468        -8.15319    -10282.53313
      -164.83250        -2.02962        -8.16178    -10282.53313
      -163.67609        -2.03147        -9.70365    -10864.20992
      -164.83250        -2.02962        -8.16178    -10864.20992
      -164.90543        -2.17997        -9.37419    -10864.20992
      -163.67609        -2.03147        -9.70365    -10864.20992
      -163.58549        -1.93468        -8.15319     -8120.49524
      -162.40823        -1.86356        -9.67611     -8120.49524
      -162.44856        -1.94965        -7.61451     -8120.49524
      -163.58549        -1.93468        -8.15319     -8120.49524
      -162.40823        -1.86356        -9.67611     -8655.72318
      -163.58549        -1.93468        -8.15319     -8655.72318
      -163.67609        -2.03147        -9.70365     -8655.72318
      -162.40823        -1.86356        -9.67611     -8655.72318
      -167.30433        -2.57013        -8.57042    -13546.06705
      -166.09794        -3.15768        -9.49712    -13546.06705
      -166.10988        -2.37987        -8.99023    -13546.06705
      -167.30433        -2.57013        -8.57042    -13546.06705
      -166.09794        -3.15768        -9.49712    -12776.70444
      -167.30433        -2.57013        -8.57042    -12776.70444
      -167.29462        -3.16750        -8.86003    -12776.70444
      -166.09794        -3.15768        -9.49712    -12776.70444
      -166.10988        -2.37987        -8.99023    -11506.77633
      -164.88096        -3.14783       -10.09446    -11506.77633
      -164.90543        -2.17997        -9.37419    -11506.77633
      -166.10988        -2.37987        -8.99023    -11506.77633
      -164.88096        -3.14783       -10.09446    -12048.48091
      -166.10988        -2.37987        -8.99023    -12048.48091
      -166.09794        -3.15768        -9.49712    -12048.48091
      -164.88096        -3.14783       -10.09446    -12048.48091
      -164.90543        -2.17997        -9.37419     -9335.65241
      -163.64066        -3.13797       -10.64186     -9335.65241
      -163.67609        -2.03147        -9.70365     -9335.65241
      -164.90543        -2.17997        -9.37419     -9335.65241
      -163.64066        -3.13797       -10.64186     -9711.85506
      -164.90543        -2.17997        -9.37419     -9711.85506
      -164.88096        -3.14783       -10.09446     -9711.85506
      -163.64066        -3.13797       -10.64186     -9711.85506
      -163.67609        -2.03147        -9.70365     -7979.55341
      -162.37126        -3.12810       -11.11773     -7979.55341
      -162.40823        -1.86356        -9.67611     -7979.55341
      -163.67609        -2.03147        -9.70365     -7979.55341
      -162.37126        -3.12810       -11.11773     -8421.80978
      -163.67609        -2.03147        -9.70365     -8421.80978
      -163.64066        -3.13797       -10.64186     -8421.80978
      -162.37126        -3.12810       -11.11773     -8421.80978
       175.82460         0.13193        -3.36578    -48782.47410
       175.84807        -0.86873        -4.21497    -48782.47410
       177.37250        -0.86042        -3.50448    -48782.47410
       175.82460         0.13193        -3.36578    -48782.47410
       177.34449         0.11432        -2.65037    -51250.30448
       177.37250        -0.86042        -3.50448    -51250.30448
       178.87521        -0.85239        -2.74886    -51250.30448
       177.34449         0.11432        -2.65037    -51250.30448
       178.81129         0.11717        -1.81115    -54639.08514
       178.87521        -0.85239        -2.74886    -54639.08514
       180.35381        -0.84464        -1.94743    -54639.08514
       178.81129         0.11717        -1.81115    -54639.08514
       180.24186         0.11030        -0.91355    -58606.45733
       180.35381        -0.84464        -1.94743    -58606.45733
       181.78065        -0.83749        -1.05721    -58606.45733
       180.24186         0.11030        -0.91355    -58606.45733
       181.61707         0.10985         0.08997    -62888.03938
       181.78065        -0.83749        -1.05721    -62888.03938
       183.12045        -0.83127        -0.04107    -62888.03938
       181.61707         0.10985         0.08997    -62888.03938
       182.90938         0.06102         1.23281    -67915.61911
       183.12045        -0.83127        -0.04107    -67915.61911
       184.32716        -0.82638         1.13295    -67915.61911
       182.90938         0.06102         1.23281    -67915.61911
       184.09296        -0.06531         2.54834    -74037.90777
       184.32716        -0.82638         1.13295    -74037.90777
       185.26980        -0.82386         2.51745    -74037.90777
       184.09296        -0.06531         2.54834    -74037.90777
       185.13343        -0.27765         3.97054    -81672.86764
       185.26980        -0.82386         2.51745    -81672.86764
       185.88046        -0.82409         4.09127    -81672.86764
       185.13343        -0.27765         3.97054    -81672.86764
      -162.57703        -1.46441        -1.29979    -19575.03302
      -163.98697        -3.16450        -1.88016    -19575.03302
      -162.51927        -3.14973        -3.64872    -19575.03302
      -162.57703        -1.46441        -1.29979    -19575.03302
      -164.59799        -0.52436        -0.70065    -22519.93165
      -165.73744        -3.17977        -0.62316    -22519.93165
      -163.98697        -3.16450        -1.88016    -22519.93165
      -164.59799        -0.52436        -0.70065    -22519.93165
      -166.71684        -0.14367        -0.26700    -24698.78911
      -167.89557        -3.19572        -0.11250    -24698.78911
      -165.73744        -3.17977        -0.62316    -24698.78911
      -166.71684        -0.14367        -0.26700    -24698.78911
      -169.04307         0.13848         0.14673    -27132.70703
      -170.10920        -3.21156         0.22614    -27132.70703
      -167.89557        -3.19572        -0.11250    -27132.70703
      -169.04307         0.13848         0.14673    -27132.70703
      -171.52019         0.32637         0.54207    -30756.56218
      -172.28628        -3.22725         0.59658    -30756.56218
      -170.10920        -3.21156         0.22614    -30756.56218
      -171.52019         0.32637         0.54207    -30756.56218
      -173.93642         0.40597         0.97334    -34576.82642
      -174.47690        -3.24299         0.95159    -34576.82642
      -172.28628        -3.22725         0.59658    -34576.82642
      -173.93642         0.40597         0.97334    -34576.82642
      -162.68805        10.07717         0.44336     -7076.84189
      -159.71037        11.59816         0.43885     -7076.84189
      -159.74891        14.12728         1.29576     -7076.84189
      -162.72233        12.88431         1.23313     -7076.84189
      -159.71037        11.59816         0.43885      1089.12647
      -156.72240        12.78510         0.35852      1089.12647
      -156.76789        15.33419         1.35843      1089.12647
      -159.74891        14.12728         1.29576      1089.12647
      -156.72240        12.78510         0.35852      8634.86795
      -153.72110        13.92351         0.27696      8634.86795
      -153.77121        16.47869         1.42122      8634.86795
      -156.76789        15.33419         1.35843      8634.86795
      -153.72110        13.92351         0.27696     15818.63877
      -150.69993        14.99166         0.19297     15818.63877
      -150.75086        17.53442         1.48421     15818.63877
      -153.77121        16.47869         1.42122     15818.63877
      -150.69993        14.99166         0.19297     22719.52489
      -147.65238        15.96785         0.10530     22719.52489
      -147.69881        18.47502         1.54748     22719.52489
      -150.75086        17.53442         1.48421     22719.52489
      -147.65238        15.96785         0.10530     28701.46074
      -144.57199        16.83080         0.01275     28701.46074
      -144.60722        19.27457         1.61111     28701.46074
      -147.69881        18.47502         1.54748     28701.46074
      -144.57199        16.83080         0.01275     33346.14336
      -141.45781        17.57514        -0.08422     33346.14336
      -141.47527        19.92498         1.67508     33346.14336
      -144.60722        19.27457         1.61111     33346.14336
      -141.45781        17.57514        -0.08422     37927.54767
      -138.31596        18.21622        -0.18305     37927.54767
      -138.31122        20.44124         1.73928     37927.54767
      -141.47527        19.92498         1.67508     37927.54767
      -138.31596        18.21622        -0.18305     42954.52772
      -135.15305        18.77083        -0.28102     42954.52772
      -135.12403        20.83985         1.80359     42954.52772
      -138.31122        20.44124         1.73928     42954.52772
      -135.15305        18.77083        -0.28102     48328.99599
      -131.97568        19.25575        -0.37543     48328.99599
      -131.92253        21.13732         1.86787     48328.99599
      -135.12403        20.83985         1.80359     48328.99599
      -131.97568        19.25575        -0.37543     52842.01201
      -128.79042        19.68775        -0.46356     52842.01201
      -128.71567        21.35020         1.93200     52842.01201
      -131.92253        21.13732         1.86787     52842.01201
      -128.79042        19.68775        -0.46356     55567.53294
      -125.60261        20.08011        -0.54280     55567.53294
      -125.51034        21.49448         1.99589     55567.53294
      -128.71567        21.35020         1.93200     55567.53294
      -125.60261        20.08011        -0.54280     57593.98798
      -122.41291        20.43361        -0.61090     57593.98798
      -122.30710        21.58470         2.05958     57593.98798
      -125.51034        21.49448         1.99589     57593.98798
      -122.41291        20.43361        -0.61090     58746.85533
      -119.22091        20.74614        -0.66567     58746.85533
      -119.10520        21.63502         2.12312     58746.85533
      -122.30710        21.58470         2.05958     58746.85533
      -119.22091        20.74614        -0.66567     58031.88195
      -116.02625        21.01563        -0.70493     58031.88195
      -115.90398        21.65963         2.18657     58031.88195
      -119.10520        21.63502         2.12312     58031.88195
      -116.02625        21.01563        -0.70493     54559.34060
      -112.82850        21.23996        -0.72650     54559.34060
      -112.70266        21.67271         2.24998     54559.34060
      -115.90398        21.65963         2.18657     54559.34060
      -112.82850        21.23996        -0.72650     47471.32036
      -109.62735        21.41767        -0.72865     47471.32036
      -109.50065        21.68716         2.31342     47471.32036
      -112.70266        21.67271         2.24998     47471.32036
      -109.62735        21.41767        -0.72865     38721.56272
      -106.42322        21.55292        -0.71363     38721.56272
      -106.29786        21.70610         2.37688     38721.56272
      -109.50065        21.68716         2.31342     38721.56272
      -106.42322        21.55292        -0.71363     28534.23450
      -103.21687        21.65286        -0.68586     28534.23450
      -103.09455        21.72823         2.44036     28534.23450
      -106.29786        21.70610         2.37688     28534.23450
      -103.21687        21.65286        -0.68586     17465.25371
      -100.00909        21.72471        -0.64976     17465.25371
       -99.89092        21.75218         2.50386     17465.25371
      -103.09455        21.72823         2.44036     17465.25371
      -100.00909        21.72471        -0.64976      6158.45380
       -96.80067        21.77568        -0.60977      6158.45380
       -96.68722        21.77662         2.56735      6158.45380
       -99.89092        21.75218         2.50386      6158.45380
       -96.80067        21.77568        -0.60977     -4675.11548
       -93.59239        21.81286        -0.57023     -4675.11548
       -93.48365        21.80026         2.63085     -4675.11548
       -96.68722        21.77662         2.56735     -4675.11548
       -93.59239        21.81286        -0.57023    -13845.26481
       -90.38458        21.84118        -0.53302    -13845.26481
       -90.28029        21.82263         2.69433    -13845.26481
       -93.48365        21.80026         2.63085    -13845.26481
       -90.38458        21.84118        -0.53302    -20582.39576
       -87.17717        21.86312        -0.49731    -20582.39576
       -87.07710        21.84404         2.75781    -20582.39576
       -90.28029        21.82263         2.69433    -20582.39576
       -87.17717        21.86312        -0.49731    -24987.12240
       -83.96998        21.88104        -0.46211    -24987.12240
       -83.87399        21.86486         2.82128    -24987.12240
       -87.07710        21.84404         2.75781    -24987.12240
       -83.96998        21.88104        -0.46211    -27154.19852
       -80.76290        21.89729        -0.42646    -27154.19852
       -80.67094        21.88546         2.88475    -27154.19852
       -83.87399        21.86486         2.82128    -27154.19852
       -80.76290        21.89729        -0.42646    -26409.49922
       -77.55580        21.91423        -0.38936    -26409.49922
       -77.46786        21.90617         2.94823    -26409.49922
       -80.67094        21.88546         2.88475    -26409.49922
       -77.55580        21.91423        -0.38936    -22394.34250
       -74.34862        21.93338        -0.35026    -22394.34250
       -74.26470        21.92722         3.01171    -22394.34250
       -77.46786        21.90617         2.94823    -22394.34250
       -74.34862        21.93338        -0.35026    -14403.84545
       -71.14126        21.95440        -0.30958    -14403.84545
       -71.06160        21.94856         3.07518    -14403.84545
       -74.26470        21.92722         3.01171    -14403.84545
       -71.14126        21.95440        -0.30958     -6379.13680
       -67.93383        21.97664        -0.26784     -6379.13680
       -67.85830        21.97009         3.13866     -6379.13680
       -71.06160        21.94856         3.07518     -6379.13680
       -67.93383        21.97664        -0.26784       454.81502
       -64.72642        21.99948        -0.22559       454.81502
       -64.65510        21.99170         3.20214       454.81502
       -67.85830        21.97009         3.13866       454.81502
       -64.72642        21.99948        -0.22559      7192.61703
       -61.51911        22.02230        -0.18336      7192.61703
       -61.45190        22.01331         3.26562      7192.61703
       -64.65510        21.99170         3.20214      7192.61703
       -61.51911        22.02230        -0.18336     15969.76506
       -58.31168        22.04457        -0.14158     15969.76506
       -58.24860        22.03483         3.32910     15969.76506
       -61.45190        22.01331         3.26562     15969.76506
       -58.31168        22.04457        -0.14158     26795.52346
       -55.10434        22.06629        -0.10005     26795.52346
       -55.04550        22.05626         3.39258     26795.52346
       -58.24860        22.03483         3.32910     26795.52346
       -55.10434        22.06629        -0.10005     33621.81082
       -51.89701        22.08764        -0.05841     33621.81082
       -51.84230        22.07764         3.45605     33621.81082
       -55.04550        22.05626         3.39258     33621.81082
       -51.89701        22.08764        -0.05841     35628.34948
       -48.68969        22.10880        -0.01626     35628.34948
       -48.63911        22.09900         3.51953     35628.34948
       -51.84230        22.07764         3.45605     35628.34948
       -48.68969        22.10880        -0.01626     35383.02040
       -45.48237        22.12994         0.02677     35383.02040
       -45.43591        22.12035         3.58301     35383.02040
       -48.63911        22.09900         3.51953     35383.02040
       -45.48237        22.12994         0.02677     36102.09794
       -42.27510        22.15121         0.07107     36102.09794
       -42.23270        22.14172         3.64649     36102.09794
       -45.43591        22.12035         3.58301     36102.09794
       -42.27510        22.15121         0.07107     37441.05827
       -39.06784        22.17265         0.11695     37441.05827
       -39.02950        22.16310         3.70997     37441.05827
       -42.23270        22.14172         3.64649     37441.05827
       -39.06784        22.17265         0.11695     36051.02442
       -35.86052        22.19418         0.16467     36051.02442
       -35.82630        22.18451         3.77345     36051.02442
       -39.02950        22.16310         3.70997     36051.02442
       -35.86052        22.19418         0.16467     32051.42050
       -32.65336        22.21574         0.21453     32051.42050
       -32.62310        22.20593         3.83692     32051.42050
       -35.82630        22.18451         3.77345     32051.42050
       -32.65336        22.21574         0.21453     28059.92233
       -29.44614        22.23724         0.26679     28059.92233
       -29.41990        22.22734         3.90040     28059.92233
       -32.62310        22.20593         3.83692     28059.92233
       -29.44614        22.23724         0.26679     25862.53231
       -26.23896        22.25861         0.32171     25862.53231
       -26.21670        22.24875         3.96388     25862.53231
       -29.41990        22.22734         3.90040     25862.53231
       -26.23896        22.25861         0.32171     25404.67133
       -23.03195        22.27987         0.37923     25404.67133
       -23.01350        22.27016         4.02736     25404.67133
       -26.21670        22.24875         3.96388     25404.67133
       -23.03195        22.27987         0.37923     26507.93181
       -19.82487        22.30110         0.43880     26507.93181
       -19.81031        22.29157         4.09084     26507.93181
       -23.01350        22.27016         4.02736     26507.93181
       -19.82487        22.30110         0.43880     29250.89127
       -16.61782        22.32244         0.49983     29250.89127
       -16.60711        22.31297         4.15431     29250.89127
       -19.81031        22.29157         4.09084     29250.89127
       -16.61782        22.32244         0.49983     32922.58605
       -13.41087        22.34401         0.56172     32922.58605
       -13.40391        22.33436         4.21779     32922.58605
       -16.60711        22.31297         4.15431     32922.58605
       -13.41087        22.34401         0.56172     37081.99063
       -10.20385        22.36591         0.62389     37081.99063
       -10.20071        22.35577         4.28127     37081.99063
       -13.40391        22.33436         4.21779     37081.99063
       -10.20385        22.36591         0.62389     42317.73294
        -6.99683        22.38817         0.68600     42317.73294
        -6.99750        22.37717         4.34475     42317.73294
       -10.20071        22.35577         4.28127     42317.73294
        -6.99683        22.38817         0.68600     50071.33376
        -3.78981        22.41049         0.74837     50071.33376
        -3.79430        22.39857         4.40823     50071.33376
        -6.99750        22.37717         4.34475     50071.33376
        -3.78981        22.41049         0.74837     60213.80734
        -0.58280        22.43255         0.81145     60213.80734
        -0.59110        22.41998         4.47171     60213.80734
        -3.79430        22.39857         4.40823     60213.80734
        -0.58280        22.43255         0.81145     68877.59296
         2.62408        22.45399         0.87573     68877.59296
         2.61210        22.44138         4.53518     68877.59296
        -0.59110        22.41998         4.47171     68877.59296
         2.62408        22.45399         0.87573     75584.29338
         5.83104        22.47446         0.94168     75584.29338
         5.81530        22.46278         4.59866     75584.29338
         2.61210        22.44138         4.53518     75584.29338
         5.83104        22.47446         0.94168     81754.81036
         9.03786        22.49377         1.00974     81754.81036
         9.01839        22.48419         4.66214     81754.81036
         5.81530        22.46278         4.59866     81754.81036
         9.03786        22.49377         1.00974     89058.12962
        12.24474        22.51261         1.08024     89058.12962
        12.22160        22.50559         4.72562     89058.12962
         9.01839        22.48419         4.66214     89058.12962
        12.24474        22.51261         1.08024     97398.11297
        15.45156        22.53212         1.15346     97398.11297
        15.42480        22.52699         4.78909     97398.11297
        12.22160        22.50559         4.72562     97398.11297
        15.45156        22.53212         1.15346    102825.46806
        18.65822        22.55338         1.22969    102825.46806
        18.62800        22.54839         4.85257    102825.46806
        15.42480        22.52699         4.78909    102825.46806
        18.65822        22.55338         1.22969    105590.16286
        21.86488        22.57751         1.30919    105590.16286
        21.83120        22.56980         4.91605    105590.16286
        18.62800        22.54839         4.85257    105590.16286
        21.86488        22.57751         1.30919    106730.85855
        25.07135        22.60546         1.39225    106730.85855
        25.03440        22.59120         4.97953    106730.85855
        21.83120        22.56980         4.91605    106730.85855
        25.07135        22.60546         1.39225    107080.89844
        28.27784        22.63566         1.47865    107080.89844
        28.23760        22.61260         5.04301    107080.89844
        25.03440        22.59120         4.97953    107080.89844
        28.27784        22.63566         1.47865    106417.22399
        31.48428        22.66423         1.56785    106417.22399
        31.44080        22.63401         5.10649    106417.22399
        28.23760        22.61260         5.04301    106417.22399
        31.48428        22.66423         1.56785    103205.86427
        34.69052        22.68722         1.65925    103205.86427
        34.64399        22.65541         5.16996    103205.86427
        31.44080        22.63401         5.10649    103205.86427
        34.69052        22.68722         1.65925     97618.02334
        37.89679        22.70069         1.75228     97618.02334
        37.84719        22.67681         5.23344     97618.02334
        34.64399        22.65541         5.16996     97618.02334
        37.89679        22.70069         1.75228     90682.70872
        41.10292        22.70071         1.84634     90682.70872
        41.05039        22.69821         5.29692     90682.70872
        37.84719        22.67681         5.23344     90682.70872
        41.10292        22.70071         1.84634     82781.51748
        44.30914        22.68575         1.94107     82781.51748
        44.25359        22.71961         5.36040     82781.51748
        41.05039        22.69821         5.29692     82781.51748
        44.30914        22.68575         1.94107     74260.04405
        47.51524        22.65855         2.03640     74260.04405
        47.45680        22.74102         5.42388     74260.04405
        44.25359        22.71961         5.36040     74260.04405
        47.51524        22.65855         2.03640     65897.68740
        50.72128        22.62234         2.13229     65897.68740
        50.66000        22.76243         5.48736     65897.68740
        47.45680        22.74102         5.42388     65897.68740
        50.72128        22.62234         2.13229     57559.89627
        53.92735        22.58033         2.22875     57559.89627
        53.86309        22.78383         5.55083     57559.89627
        50.66000        22.76243         5.48736     57559.89627
        53.92735        22.58033         2.22875     49516.03282
        57.13342        22.53574         2.32576     49516.03282
        57.06629        22.80523         5.61431     49516.03282