 VARIABLES= "X","Y","Z","PRESS"  
ZONE N=                                       27712 E=                             6928 F=FEPOINT, ET=QUADRILATERAL
      -167.31350         1.30504        -9.59894    -25516.22502
      -166.01172         2.10096        -9.65138    -25516.22502
      -165.89656         1.30679        -9.03753    -25516.22502
      -167.31350         1.30504        -9.59894    -25516.22502
      -166.01172         2.10096        -9.65138    -25525.51844
      -167.31350         1.30504        -9.59894    -25525.51844
      -167.30832         1.90326        -9.88626    -25525.51844
      -166.01172         2.10096        -9.65138    -25525.51844
      -165.89656         1.30679        -9.03753    -24314.49290
      -164.69730         2.20234        -9.42962    -24314.49290
      -164.50567         1.30846        -8.39269    -24314.49290
      -165.89656         1.30679        -9.03753    -24314.49290
      -164.69730         2.20234        -9.42962    -23807.75435
      -165.89656         1.30679        -9.03753    -23807.75435
      -166.01172         2.10096        -9.65138    -23807.75435
      -164.69730         2.20234        -9.42962    -23807.75435
      -164.50567         1.30846        -8.39269    -24245.61111
      -163.43459         2.16127        -9.07068    -24245.61111
      -163.29414         1.30973        -7.52034    -24245.61111
      -164.50567         1.30846        -8.39269    -24245.61111
      -163.43459         2.16127        -9.07068    -22857.13770
      -164.50567         1.30846        -8.39269    -22857.13770
      -164.69730         2.20234        -9.42962    -22857.13770
      -163.43459         2.16127        -9.07068    -22857.13770
      -163.29414         1.30973        -7.52034    -26906.69857
      -162.46552         1.88989        -8.17149    -26906.69857
      -162.50657         1.31010        -6.18168    -26906.69857
      -163.29414         1.30973        -7.52034    -26906.69857
      -162.46552         1.88989        -8.17149    -25101.59946
      -163.29414         1.30973        -7.52034    -25101.59946
      -163.43459         2.16127        -9.07068    -25101.59946
      -162.46552         1.88989        -8.17149    -25101.59946
      -167.30832         1.90326        -9.88626    -24368.05444
      -166.05214         2.28790       -10.60985    -24368.05444
      -166.01172         2.10096        -9.65138    -24368.05444
      -167.30832         1.90326        -9.88626    -24368.05444
      -166.05214         2.28790       -10.60985    -25666.00641
      -167.30832         1.90326        -9.88626    -25666.00641
      -167.29582         2.16660       -10.49833    -25666.00641
      -166.05214         2.28790       -10.60985    -25666.00641
      -166.01172         2.10096        -9.65138    -23460.52513
      -164.80843         2.43255       -10.70024    -23460.52513
      -164.69730         2.20234        -9.42962    -23460.52513
      -166.01172         2.10096        -9.65138    -23460.52513
      -164.80843         2.43255       -10.70024    -23943.52247
      -166.01172         2.10096        -9.65138    -23943.52247
      -166.05214         2.28790       -10.60985    -23943.52247
      -164.80843         2.43255       -10.70024    -23943.52247
      -164.69730         2.20234        -9.42962    -22847.07903
      -163.56094         2.52095       -10.69031    -22847.07903
      -163.43459         2.16127        -9.07068    -22847.07903
      -164.69730         2.20234        -9.42962    -22847.07903
      -163.56094         2.52095       -10.69031    -23017.26333
      -164.69730         2.20234        -9.42962    -23017.26333
      -164.80843         2.43255       -10.70024    -23017.26333
      -163.56094         2.52095       -10.69031    -23017.26333
      -163.43459         2.16127        -9.07068    -23436.27686
      -162.42475         2.50116       -10.15016    -23436.27686
      -162.46552         1.88989        -8.17149    -23436.27686
      -163.43459         2.16127        -9.07068    -23436.27686
      -162.42475         2.50116       -10.15016    -22539.58407
      -163.43459         2.16127        -9.07068    -22539.58407
      -163.56094         2.52095       -10.69031    -22539.58407
      -162.42475         2.50116       -10.15016    -22539.58407
      -167.29582         2.16660       -10.49833    -26182.98019
      -166.08661         2.08725       -11.52951    -26182.98019
      -166.05214         2.28790       -10.60985    -26182.98019
      -167.29582         2.16660       -10.49833    -26182.98019
      -166.08661         2.08725       -11.52951    -25389.85642
      -167.29582         2.16660       -10.49833    -25389.85642
      -167.28255         1.90419       -11.11075    -25389.85642
      -166.08661         2.08725       -11.52951    -25389.85642
      -166.05214         2.28790       -10.60985    -24098.75261
      -164.88066         2.27997       -11.91242    -24098.75261
      -164.80843         2.43255       -10.70024    -24098.75261
      -166.05214         2.28790       -10.60985    -24098.75261
      -164.88066         2.27997       -11.91242    -24333.14131
      -166.05214         2.28790       -10.60985    -24333.14131
      -166.08661         2.08725       -11.52951    -24333.14131
      -164.88066         2.27997       -11.91242    -24333.14131
      -164.80843         2.43255       -10.70024    -23021.11930
      -163.65016         2.42127       -12.24070    -23021.11930
      -163.56094         2.52095       -10.69031    -23021.11930
      -164.80843         2.43255       -10.70024    -23021.11930
      -163.65016         2.42127       -12.24070    -23085.73781
      -164.80843         2.43255       -10.70024    -23085.73781
      -164.88066         2.27997       -11.91242    -23085.73781
      -163.65016         2.42127       -12.24070    -23085.73781
      -163.56094         2.52095       -10.69031    -22142.24842
      -162.38147         2.58257       -12.21195    -22142.24842
      -162.42475         2.50116       -10.15016    -22142.24842
      -163.56094         2.52095       -10.69031    -22142.24842
      -162.38147         2.58257       -12.21195    -21931.52767
      -163.56094         2.52095       -10.69031    -21931.52767
      -163.65016         2.42127       -12.24070    -21931.52767
      -162.38147         2.58257       -12.21195    -21931.52767
      -167.28255         1.90419       -11.11075    -24601.85485
      -166.07811         1.30830       -12.03463    -24601.85485
      -166.08661         2.08725       -11.52951    -24601.85485
      -167.28255         1.90419       -11.11075    -24601.85485
      -166.07811         1.30830       -12.03463    -24550.36787
      -167.28255         1.90419       -11.11075    -24550.36787
      -167.27561         1.30616       -11.39900    -24550.36787
      -166.07811         1.30830       -12.03463    -24550.36787
      -166.08661         2.08725       -11.52951    -23259.37395
      -164.86037         1.31045       -12.63048    -23259.37395
      -164.88066         2.27997       -11.91242    -23259.37395
      -166.08661         2.08725       -11.52951    -23259.37395
      -164.86037         1.31045       -12.63048    -23679.16365
      -166.08661         2.08725       -11.52951    -23679.16365
      -166.07811         1.30830       -12.03463    -23679.16365
      -164.86037         1.31045       -12.63048    -23679.16365
      -164.88066         2.27997       -11.91242    -22087.20286
      -163.61936         1.31260       -13.17637    -22087.20286
      -163.65016         2.42127       -12.24070    -22087.20286
      -164.88066         2.27997       -11.91242    -22087.20286
      -163.61936         1.31260       -13.17637    -22276.43970
      -164.88066         2.27997       -11.91242    -22276.43970
      -164.86037         1.31045       -12.63048    -22276.43970
      -163.61936         1.31260       -13.17637    -22276.43970
      -163.65016         2.42127       -12.24070    -21899.52702
      -162.34934         1.31476       -13.65068    -21899.52702
      -162.38147         2.58257       -12.21195    -21899.52702
      -163.65016         2.42127       -12.24070    -21899.52702
      -162.34934         1.31476       -13.65068    -21615.05864
      -163.65016         2.42127       -12.24070    -21615.05864
      -163.61936         1.31260       -13.17637    -21615.05864
      -162.34934         1.31476       -13.65068    -21615.05864
       175.85046         2.81157        -5.48374    -20013.19948
       175.86974         1.80899        -6.33065    -20013.19948
       177.39333         1.81082        -5.61826    -20013.19948
       175.85046         2.81157        -5.48374    -20013.19948
       177.36937         2.78752        -4.76637    -20287.77195
       177.39333         1.81082        -5.61826    -20287.77195
       178.89515         1.81258        -4.86077    -20287.77195
       177.36937         2.78752        -4.76637    -20287.77195
       178.83515         2.78446        -3.92531    -21132.23245
       178.89515         1.81258        -4.86077    -21132.23245
       180.37280         1.81428        -4.05749    -21132.23245
       178.83515         2.78446        -3.92531    -21132.23245
       180.26457         2.77201        -3.02590    -22220.07620
       180.37280         1.81428        -4.05749    -22220.07620
       181.79857         1.81586        -3.16549    -22220.07620
       180.26457         2.77201        -3.02590    -22220.07620
       181.63854         2.76651        -2.02064    -23439.74406
       181.79857         1.81586        -3.16549    -23439.74406
       183.13715         1.81723        -2.14768    -23439.74406
       181.63854         2.76651        -2.02064    -23439.74406
       182.92919         2.71335        -0.87606    -25103.20818
       183.13715         1.81723        -2.14768    -25103.20818
       184.34244         1.81831        -0.97214    -25103.20818
       182.92919         2.71335        -0.87606    -25103.20818
       184.11050         2.58365         0.44126    -27562.96902
       184.34244         1.81831        -0.97214    -27562.96902
       185.28340         1.81887         0.41356    -27562.96902
       184.11050         2.58365         0.44126    -27562.96902
       185.14811         2.36893         1.86527    -31232.92257
       185.28340         1.81887         0.41356    -31232.92257
       185.89213         1.81884         1.98817    -31232.92257
       185.14811         2.36893         1.86527    -31232.92257
      -162.55839         3.00075        -3.83659    -28600.73702
      -163.97648         1.30689        -4.41488    -28600.73702
      -162.50657         1.31010        -6.18168    -28600.73702
      -162.55839         3.00075        -3.83659    -28600.73702
      -164.57514         3.95270        -3.24209    -31309.16816
      -165.72854         1.30356        -3.16001    -31309.16816
      -163.97648         1.30689        -4.41488    -31309.16816
      -164.57514         3.95270        -3.24209    -31309.16816
      -166.69252         4.34546        -2.81194    -32694.83472
      -167.88736         1.30008        -2.65200    -32694.83472
      -165.72854         1.30356        -3.16001    -32694.83472
      -166.69252         4.34546        -2.81194    -32694.83472
      -169.01775         4.64074        -2.40175    -33351.15910
      -170.10147         1.29661        -2.31608    -33351.15910
      -167.88736         1.30008        -2.65200    -33351.15910
      -169.01775         4.64074        -2.40175    -33351.15910
      -171.49434         4.84251        -2.00991    -34168.71331
      -172.27905         1.29318        -1.94832    -34168.71331
      -170.10147         1.29661        -2.31608    -34168.71331
      -171.49434         4.84251        -2.00991    -34168.71331
      -173.91065         4.93575        -1.58183    -34781.92474
      -174.47016         1.28975        -1.59600    -34781.92474
      -172.27905         1.29318        -1.94832    -34781.92474
      -173.91065         4.93575        -1.58183    -34781.92474
      -162.61124        14.54621        -2.11968    -24710.31327
      -159.62564        16.05146        -2.12392    -24710.31327
      -159.65202        18.58253        -1.27276    -24710.31327
      -162.63182        17.35512        -1.33629    -24710.31327
      -159.62564        16.05146        -2.12392    -19518.45929
      -156.63140        17.22245        -2.20321    -19518.45929
      -156.66480        19.77384        -1.20910    -19518.45929
      -159.65202        18.58253        -1.27276    -19518.45929
      -156.63140        17.22245        -2.20321    -13315.51562
      -153.62409        18.34484        -2.28359    -13315.51562
      -153.66225        20.90266        -1.14516    -13315.51562
      -156.66480        19.77384        -1.20910    -13315.51562
      -153.62409        18.34484        -2.28359     -7537.81369
      -150.59728        19.39686        -2.36624     -7537.81369
      -150.63650        21.94259        -1.08079     -7537.81369
      -153.66225        20.90266        -1.14516     -7537.81369
      -150.59728        19.39686        -2.36624     -2476.66955
      -147.54455        20.35678        -2.45231     -2476.66955
      -147.57964        22.86722        -1.01583     -2476.66955
      -150.63650        21.94259        -1.08079     -2476.66955
      -147.54455        20.35678        -2.45231      1759.37352
      -144.45957        21.20329        -2.54297      1759.37352
      -144.48398        23.65060        -0.95016      1759.37352
      -147.57964        22.86722        -1.01583      1759.37352
      -144.45957        21.20329        -2.54297      4769.49000
      -141.34142        21.93099        -2.63774      4769.49000
      -141.34875        24.28465        -0.88375      4769.49000
      -144.48398        23.65060        -0.95016      4769.49000
      -141.34142        21.93099        -2.63774      6647.84973
      -138.19613        22.55529        -2.73410      6647.84973
      -138.18211        24.78437        -0.81676      6647.84973
      -141.34875        24.28465        -0.88375      6647.84973
      -138.19613        22.55529        -2.73410      8148.83056
      -135.03024        23.09303        -2.82937      8148.83056
      -134.99295        25.16633        -0.74938      8148.83056
      -138.18211        24.78437        -0.81676      8148.83056
      -135.03024        23.09303        -2.82937      9066.63951
      -131.85026        23.56100        -2.92092      9066.63951
      -131.79002        25.44708        -0.68178      9066.63951
      -134.99295        25.16633        -0.74938      9066.63951
      -131.85026        23.56100        -2.92092      7857.74985
      -128.66267        23.97602        -3.00606      7857.74985
      -128.58215        25.64321        -0.61412      7857.74985
      -131.79002        25.44708        -0.68178      7857.74985
      -128.66267        23.97602        -3.00606      4510.13738
      -125.47275        24.35142        -3.08221      4510.13738
      -125.37618        25.77076        -0.54655      4510.13738
      -128.58215        25.64321        -0.61412      4510.13738
      -125.47275        24.35142        -3.08221      1720.28631
      -122.28115        24.68798        -3.14712      1720.28631
      -122.17258        25.84425        -0.47907      1720.28631
      -125.37618        25.77076        -0.54655      1720.28631
      -122.28115        24.68798        -3.14712      1221.57723
      -119.08748        24.98357        -3.19862      1221.57723
      -118.97053        25.87785        -0.41164      1221.57723
      -122.17258        25.84425        -0.47907      1221.57723
      -119.08748        24.98357        -3.19862      2577.14632
      -115.89140        25.23615        -3.23450      2577.14632
      -115.76929        25.88575        -0.34425      2577.14632
      -118.97053        25.87785        -0.41164      2577.14632
      -115.89140        25.23615        -3.23450      3650.74615
      -112.69249        25.44360        -3.25258      3650.74615
      -112.56802        25.88212        -0.27687      3650.74615
      -115.76929        25.88575        -0.34425      3650.74615
      -112.69249        25.44360        -3.25258      4583.45985
      -109.49044        25.60445        -3.25114      4583.45985
      -109.36605        25.87986        -0.20947      4583.45985
      -112.56802        25.88212        -0.27687      4583.45985
      -109.49044        25.60445        -3.25114      6147.40377
      -106.28566        25.72286        -3.23242      6147.40377
      -106.16327        25.88208        -0.14205      6147.40377
      -109.36605        25.87986        -0.20947      6147.40377
      -106.28566        25.72286        -3.23242      8045.95896
      -103.07885        25.80599        -3.20088      8045.95896
      -102.95996        25.88748        -0.07462      8045.95896
      -106.16327        25.88208        -0.14205      8045.95896
      -103.07885        25.80599        -3.20088     10071.82348
       -99.87078        25.86103        -3.16093     10071.82348
       -99.75631        25.89471        -0.00718     10071.82348
      -102.95996        25.88748        -0.07462     10071.82348
       -99.87078        25.86103        -3.16093     12065.45524
       -96.66218        25.89520        -3.11705     12065.45524
       -96.55260        25.90242         0.06027     12065.45524
       -99.75631        25.89471        -0.00718     12065.45524
       -96.66218        25.89520        -3.11705     14185.10695
       -93.45379        25.91557        -3.07359     14185.10695
       -93.34901        25.90935         0.12771     14185.10695
       -96.55260        25.90242         0.06027     14185.10695
       -93.45379        25.91557        -3.07359     12919.38208
       -90.24590        25.92709        -3.03244     12919.38208
       -90.14565        25.91499         0.19514     12919.38208
       -93.34901        25.90935         0.12771     12919.38208
       -90.24590        25.92709        -3.03244      8552.81050
       -87.03846        25.93223        -2.99277      8552.81050
       -86.94246        25.91968         0.26257      8552.81050
       -90.14565        25.91499         0.19514      8552.81050
       -87.03846        25.93223        -2.99277      4367.20471
       -83.83126        25.93335        -2.95361      4367.20471
       -83.73936        25.92378         0.33000      4367.20471
       -86.94246        25.91968         0.26257      4367.20471
       -83.83126        25.93335        -2.95361      2753.18133
       -80.62417        25.93280        -2.91399      2753.18133
       -80.53631        25.92766         0.39742      2753.18133
       -83.73936        25.92378         0.33000      2753.18133
       -80.62417        25.93280        -2.91399      3639.80130
       -77.41706        25.93293        -2.87292      3639.80130
       -77.33323        25.93165         0.46485      3639.80130
       -80.53631        25.92766         0.39742      3639.80130
       -77.41706        25.93293        -2.87292      2877.47577
       -74.20986        25.93529        -2.82987      2877.47577
       -74.13007        25.93598         0.53228      2877.47577
       -77.33323        25.93165         0.46485      2877.47577
       -74.20986        25.93529        -2.82987      1072.71277
       -71.00248        25.93952        -2.78523      1072.71277
       -70.92698        25.94060         0.59971      1072.71277
       -74.13007        25.93598         0.53228      1072.71277
       -71.00248        25.93952        -2.78523      1724.01063
       -67.79502        25.94497        -2.73953      1724.01063
       -67.72367        25.94540         0.66714      1724.01063
       -70.92698        25.94060         0.59971      1724.01063
       -67.79502        25.94497        -2.73953      5852.95399
       -64.58757        25.95102        -2.69333      5852.95399
       -64.52047        25.95029         0.73457      5852.95399
       -67.72367        25.94540         0.66714      5852.95399
       -64.58757        25.95102        -2.69333     12041.77690
       -61.38022        25.95705        -2.64714     12041.77690
       -61.31727        25.95518         0.80200     12041.77690
       -64.52047        25.95029         0.73457     12041.77690
       -61.38022        25.95705        -2.64714     17355.34094
       -58.17277        25.96253        -2.60141     17355.34094
       -58.11397        25.95998         0.86943     17355.34094
       -61.31727        25.95518         0.80200     17355.34094
       -58.17277        25.96253        -2.60141     21538.77154
       -54.96540        25.96746        -2.55592     21538.77154
       -54.91087        25.96469         0.93686     21538.77154
       -58.11397        25.95998         0.86943     21538.77154
       -54.96540        25.96746        -2.55592     26090.17488
       -51.75804        25.97202        -2.51032     26090.17488
       -51.70767        25.96935         1.00429     26090.17488
       -54.91087        25.96469         0.93686     26090.17488
       -51.75804        25.97202        -2.51032     30994.28701
       -48.55069        25.97639        -2.46422     30994.28701
       -48.50448        25.97399         1.07172     30994.28701
       -51.70767        25.96935         1.00429     30994.28701
       -48.55069        25.97639        -2.46422     35764.58794
       -45.34336        25.98074        -2.41723     35764.58794
       -45.30127        25.97862         1.13915     35764.58794
       -48.50448        25.97399         1.07172     35764.58794
       -45.34336        25.98074        -2.41723     40088.61941
       -42.13606        25.98523        -2.36897     40088.61941
       -42.09807        25.98326         1.20658     40088.61941
       -45.30127        25.97862         1.13915     40088.61941
       -42.13606        25.98523        -2.36897     44165.47347
       -38.92878        25.98989        -2.31914     44165.47347
       -38.89487        25.98792         1.27401     44165.47347
       -42.09807        25.98326         1.20658     44165.47347
       -38.92878        25.98989        -2.31914     48367.29685
       -35.72144        25.99464        -2.26746     48367.29685
       -35.69167        25.99261         1.34144     48367.29685
       -38.89487        25.98792         1.27401     48367.29685
       -35.72144        25.99464        -2.26746     52791.24503
       -32.51426        25.99942        -2.21364     52791.24503
       -32.48847        25.99731         1.40887     52791.24503
       -35.69167        25.99261         1.34144     52791.24503
       -32.51426        25.99942        -2.21364     57718.54817
       -29.30702        26.00416        -2.15743     57718.54817
       -29.28527        26.00200         1.47630     57718.54817
       -32.48847        25.99731         1.40887     57718.54817
       -29.30702        26.00416        -2.15743     63183.13614
       -26.09984        26.00877        -2.09855     63183.13614
       -26.08207        26.00669         1.54373     63183.13614
       -29.28527        26.00200         1.47630     63183.13614
       -26.09984        26.00877        -2.09855     68613.97222
       -22.89282        26.01327        -2.03708     68613.97222
       -22.87887        26.01138         1.61116     68613.97222
       -26.08207        26.00669         1.54373     68613.97222
       -22.89282        26.01327        -2.03708     72954.60041
       -19.68573        26.01775        -1.97355     72954.60041
       -19.67568        26.01606         1.67859     72954.60041
       -22.87887        26.01138         1.61116     72954.60041
       -19.68573        26.01775        -1.97355     75541.39233
       -16.47868        26.02235        -1.90857     75541.39233
       -16.47248        26.02074         1.74602     75541.39233
       -19.67568        26.01606         1.67859     75541.39233
       -16.47868        26.02235        -1.90857     76599.91967
       -13.27174        26.02717        -1.84272     76599.91967
       -13.26928        26.02542         1.81345     76599.91967
       -16.47248        26.02074         1.74602     76599.91967
       -13.27174        26.02717        -1.84272     75958.16160
       -10.06471        26.03233        -1.77659     75958.16160
       -10.06608        26.03010         1.88088     75958.16160
       -13.26928        26.02542         1.81345     75958.16160
       -10.06471        26.03233        -1.77659     73285.02965
        -6.85768        26.03785        -1.71053     73285.02965
        -6.86287        26.03478         1.94831     73285.02965
       -10.06608        26.03010         1.88088     73285.02965
        -6.85768        26.03785        -1.71053     68699.14530
        -3.65065        26.04342        -1.64421     68699.14530
        -3.65967        26.03946         2.01574     68699.14530
        -6.86287        26.03478         1.94831     68699.14530
        -3.65065        26.04342        -1.64421     62292.64878
        -0.44364        26.04874        -1.57716     62292.64878
        -0.45647        26.04414         2.08317     62292.64878
        -3.65967        26.03946         2.01574     62292.64878
        -0.44364        26.04874        -1.57716     55548.47276
         2.76323        26.05344        -1.50893     55548.47276
         2.74673        26.04883         2.15061     55548.47276
        -0.45647        26.04414         2.08317     55548.47276
         2.76323        26.05344        -1.50893     48916.15760
         5.97019        26.05718        -1.43902     48916.15760
         5.94993        26.05351         2.21804     48916.15760
         2.74673        26.04883         2.15061     48916.15760
         5.97019        26.05718        -1.43902     42911.25661
         9.17699        26.05975        -1.36700     42911.25661
         9.15303        26.05819         2.28546     42911.25661
         5.94993        26.05351         2.21804     42911.25661
         9.17699        26.05975        -1.36700     37847.25419
        12.38385        26.06187        -1.29253     37847.25419
        12.35623        26.06287         2.35289     37847.25419
         9.15303        26.05819         2.28546     37847.25419
        12.38385        26.06187        -1.29253     33778.88873
        15.59065        26.06465        -1.21535     33778.88873
        15.55943        26.06755         2.42032     33778.88873
        12.35623        26.06287         2.35289     33778.88873
        15.59065        26.06465        -1.21535     30769.77835
        18.79729        26.06920        -1.13517     30769.77835
        18.76263        26.07223         2.48775     30769.77835
        15.55943        26.06755         2.42032     30769.77835
        18.79729        26.06920        -1.13517     28522.81518
        22.00395        26.07663        -1.05171     28522.81518
        21.96583        26.07692         2.55518     28522.81518
        18.76263        26.07223         2.48775     28522.81518
        22.00395        26.07663        -1.05171     26391.26640
        25.21042        26.08789        -0.96472     26391.26640
        25.16903        26.08160         2.62261     26391.26640
        21.96583        26.07692         2.55518     26391.26640
        25.21042        26.08789        -0.96472     23827.52155
        28.41693        26.10140        -0.87438     23827.52155
        28.37223        26.08628         2.69004     23827.52155
        25.16903        26.08160         2.62261     23827.52155
        28.41693        26.10140        -0.87438     20676.29584
        31.62338        26.11328        -0.78124     20676.29584
        31.57543        26.09096         2.75747     20676.29584
        28.37223        26.08628         2.69004     20676.29584
        31.62338        26.11328        -0.78124     16477.70217
        34.82960        26.11960        -0.68588     16477.70217
        34.77862        26.09564         2.82490     16477.70217
        31.57543        26.09096         2.75747     16477.70217
        34.82960        26.11960        -0.68588     11754.30174
        38.03579        26.11639        -0.58888     11754.30174
        37.98182        26.10033         2.89233     11754.30174
        34.77862        26.09564         2.82490     11754.30174
        38.03579        26.11639        -0.58888      6539.72932
        41.24176        26.09975        -0.49081      6539.72932
        41.18502        26.10500         2.95976      6539.72932
        37.98182        26.10033         2.89233      6539.72932
        41.24176        26.09975        -0.49081      1562.33086
        44.44776        26.06811        -0.39205      1562.33086
        44.38822        26.10968         3.02719      1562.33086
        41.18502        26.10500         2.95976      1562.33086
        44.44776        26.06811        -0.39205     -2441.28746
        47.65357        26.02425        -0.29266     -2441.28746
        47.59143        26.11437         3.09462     -2441.28746
        44.38822        26.10968         3.02719     -2441.28746
        47.65357        26.02425        -0.29266     -5326.83774
        50.85927        25.97138        -0.19268     -5326.83774
        50.79463        26.11905         3.16206     -5326.83774
        47.59143        26.11437         3.09462     -5326.83774
        50.85927        25.97138        -0.19268     -6232.60756
        54.06496        25.91270        -0.09211     -6232.60756
        53.99772        26.12374         3.22948     -6232.60756
        50.79463        26.11905         3.16206     -6232.60756
        54.06496        25.91270        -0.09211     -5592.90244
        57.27065        25.85146         0.00900     -5592.90244
        57.20092        26.12842         3.29691     -5592.90244