 VARIABLES= "X","Y","Z","PRESS"  
ZONE N=                                       27712 E=                             6928 F=FEPOINT, ET=QUADRILATERAL
      -167.94646        -1.23606        -4.79708     30909.44481
      -166.65918        -0.42193        -4.90436     30909.44481
      -166.50481        -1.21875        -4.30210     30909.44481
      -167.94646        -1.23606        -4.79708     30909.44481
      -166.65918        -0.42193        -4.90436     30554.07804
      -167.94646        -1.23606        -4.79708     30554.07804
      -167.96277        -0.63578        -5.08012     30554.07804
      -166.65918        -0.42193        -4.90436     30554.07804
      -166.50481        -1.21875        -4.30210     30358.82105
      -165.33709        -0.30407        -4.74321     30358.82105
      -165.08530        -1.20246        -3.72254     30358.82105
      -166.50481        -1.21875        -4.30210     30358.82105
      -165.33709        -0.30407        -4.74321     29644.96506
      -166.50481        -1.21875        -4.30210     29644.96506
      -166.65918        -0.42193        -4.90436     29644.96506
      -165.33709        -0.30407        -4.74321     29644.96506
      -165.08530        -1.20246        -3.72254     30193.97095
      -164.05835        -0.33030        -4.44363     30193.97095
      -163.83440        -1.19059        -2.90737     30193.97095
      -165.08530        -1.20246        -3.72254     30193.97095
      -164.05835        -0.33030        -4.44363     29128.25470
      -165.08530        -1.20246        -3.72254     29128.25470
      -165.33709        -0.30407        -4.74321     29128.25470
      -164.05835        -0.33030        -4.44363     29128.25470
      -163.83440        -1.19059        -2.90737     32854.08372
      -163.04473        -0.59459        -3.59230     32854.08372
      -162.98538        -1.18863        -1.60662     32854.08372
      -163.83440        -1.19059        -2.90737     32854.08372
      -163.04473        -0.59459        -3.59230     29510.05709
      -163.83440        -1.19059        -2.90737     29510.05709
      -164.05835        -0.33030        -4.44363     29510.05709
      -163.04473        -0.59459        -3.59230     29510.05709
      -167.96277        -0.63578        -5.08012     29646.12481
      -166.74665        -0.22896        -5.85869     29646.12481
      -166.65918        -0.42193        -4.90436     29646.12481
      -167.96277        -0.63578        -5.08012     29646.12481
      -166.74665        -0.22896        -5.85869     30388.19831
      -167.96277        -0.63578        -5.08012     30388.19831
      -167.98230        -0.36806        -5.69032     30388.19831
      -166.74665        -0.22896        -5.85869     30388.19831
      -166.65918        -0.42193        -4.90436     29335.87611
      -165.51029        -0.06664        -6.00580     29335.87611
      -165.33709        -0.30407        -4.74321     29335.87611
      -166.65918        -0.42193        -4.90436     29335.87611
      -165.51029        -0.06664        -6.00580     29313.57581
      -166.65918        -0.42193        -4.90436     29313.57581
      -166.74665        -0.22896        -5.85869     29313.57581
      -165.51029        -0.06664        -6.00580     29313.57581
      -165.33709        -0.30407        -4.74321     28956.37019
      -164.26474         0.03878        -6.05325     28956.37019
      -164.05835        -0.33030        -4.44363     28956.37019
      -165.33709        -0.30407        -4.74321     28956.37019
      -164.26474         0.03878        -6.05325     28714.94001
      -165.33709        -0.30407        -4.74321     28714.94001
      -165.51029        -0.06664        -6.00580     28714.94001
      -164.26474         0.03878        -6.05325     28714.94001
      -164.05835        -0.33030        -4.44363     28924.04857
      -163.10427         0.03084        -5.56660     28924.04857
      -163.04473        -0.59459        -3.59230     28924.04857
      -164.05835        -0.33030        -4.44363     28924.04857
      -163.10427         0.03084        -5.56660     27745.98471
      -164.05835        -0.33030        -4.44363     27745.98471
      -164.26474         0.03878        -6.05325     27745.98471
      -163.10427         0.03084        -5.56660     27745.98471
      -167.98230        -0.36806        -5.69032     29306.43409
      -166.82110        -0.42376        -6.77727     29306.43409
      -166.74665        -0.22896        -5.85869     29306.43409
      -167.98230        -0.36806        -5.69032     29306.43409
      -166.82110        -0.42376        -6.77727     27628.12482
      -167.98230        -0.36806        -5.69032     27628.12482
      -167.99394        -0.62609        -6.30461     27628.12482
      -166.82110        -0.42376        -6.77727     27628.12482
      -166.74665        -0.22896        -5.85869     28986.32843
      -165.63672        -0.21189        -7.21452     28986.32843
      -165.51029        -0.06664        -6.00580     28986.32843
      -166.74665        -0.22896        -5.85869     28986.32843
      -165.63672        -0.21189        -7.21452     28647.50200
      -166.74665        -0.22896        -5.85869     28647.50200
      -166.82110        -0.42376        -6.77727     28647.50200
      -165.63672        -0.21189        -7.21452     28647.50200
      -165.51029        -0.06664        -6.00580     28367.24374
      -164.42458        -0.05147        -7.59869     28367.24374
      -164.26474         0.03878        -6.05325     28367.24374
      -165.51029        -0.06664        -6.00580     28367.24374
      -164.42458        -0.05147        -7.59869     28166.92050
      -165.51029        -0.06664        -6.00580     28166.92050
      -165.63672        -0.21189        -7.21452     28166.92050
      -164.42458        -0.05147        -7.59869     28166.92050
      -164.26474         0.03878        -6.05325     27674.69467
      -163.15796         0.12701        -7.62781     27674.69467
      -163.10427         0.03084        -5.56660     27674.69467
      -164.26474         0.03878        -6.05325     27674.69467
      -163.15796         0.12701        -7.62781     27289.05066
      -164.26474         0.03878        -6.05325     27289.05066
      -164.42458        -0.05147        -7.59869     27289.05066
      -163.15796         0.12701        -7.62781     27289.05066
      -167.99394        -0.62609        -6.30461     29086.34290
      -166.82551        -1.19914        -7.28782     29086.34290
      -166.82110        -0.42376        -6.77727     29086.34290
      -167.99394        -0.62609        -6.30461     29086.34290
      -166.82551        -1.19914        -7.28782     29716.50242
      -167.99394        -0.62609        -6.30461     29716.50242
      -167.99229        -1.22206        -6.59715     29716.50242
      -166.82551        -1.19914        -7.28782     29716.50242
      -166.82110        -0.42376        -6.77727     28720.39737
      -165.63665        -1.17622        -7.93970     28720.39737
      -165.63672        -0.21189        -7.21452     28720.39737
      -166.82110        -0.42376        -6.77727     28720.39737
      -165.63665        -1.17622        -7.93970     29333.45626
      -166.82110        -0.42376        -6.77727     29333.45626
      -166.82551        -1.19914        -7.28782     29333.45626
      -165.63665        -1.17622        -7.93970     29333.45626
      -165.63672        -0.21189        -7.21452     28101.32018
      -164.42224        -1.15332        -8.54274     28101.32018
      -164.42458        -0.05147        -7.59869     28101.32018
      -165.63672        -0.21189        -7.21452     28101.32018
      -164.42224        -1.15332        -8.54274     28576.20761
      -165.63672        -0.21189        -7.21452     28576.20761
      -165.63665        -1.17622        -7.93970     28576.20761
      -164.42224        -1.15332        -8.54274     28576.20761
      -164.42458        -0.05147        -7.59869     28222.35929
      -163.17551        -1.13051        -9.07563     28222.35929
      -163.15796         0.12701        -7.62781     28222.35929
      -164.42458        -0.05147        -7.59869     28222.35929
      -163.17551        -1.13051        -9.07563     27958.61883
      -164.42458        -0.05147        -7.59869     27958.61883
      -164.42224        -1.15332        -8.54274     27958.61883
      -163.17551        -1.13051        -9.07563     27958.61883
       175.05936         4.94330       -16.63125     -2059.11147
       175.05288         3.94678       -17.48534     -2059.11147
       176.60810         3.96458       -16.84447     -2059.11147
       175.05936         4.94330       -16.63125     -2059.11147
       176.61049         4.93513       -15.98538     -1620.76194
       176.60810         3.96458       -16.84447     -1620.76194
       178.14366         3.98172       -16.15754     -1620.76194
       176.61049         4.93513       -15.98538     -1620.76194
       178.11399         4.94637       -15.21331     -1931.54376
       178.14366         3.98172       -16.15754     -1931.54376
       179.65720         3.99814       -15.42374     -1931.54376
       178.11399         4.94637       -15.21331     -1931.54376
       179.58401         4.94733       -14.38133     -2350.95498
       179.65720         3.99814       -15.42374     -2350.95498
       181.12304         4.01312       -14.59889     -2350.95498
       179.58401         4.94733       -14.38133     -2350.95498
       181.00346         4.95374       -13.44098     -2759.28415
       181.12304         4.01312       -14.59889     -2759.28415
       182.50763         4.02584       -13.64430     -2759.28415
       181.00346         4.95374       -13.44098     -2759.28415
       182.34680         4.91040       -12.35789     -3216.81201
       182.50763         4.02584       -13.64430     -3216.81201
       183.76639         4.03535       -12.52594     -3216.81201
       182.34680         4.91040       -12.35789     -3216.81201
       183.58996         4.78783       -11.09770     -3867.63237
       183.76639         4.03535       -12.52594     -3867.63237
       184.77084         4.03929       -11.18534     -3867.63237
       183.58996         4.78783       -11.09770     -3867.63237
       184.69568         4.57754        -9.72485     -4871.54953
       184.77084         4.03929       -11.18534     -4871.54953
       185.45218         4.03678        -9.64057     -4871.54953
       184.69568         4.57754        -9.72485     -4871.54953
      -162.95112         0.48524         0.75057     36369.38419
      -164.37172        -1.22411         0.22677     36369.38419
      -162.98538        -1.18863        -1.60662     36369.38419
      -162.95112         0.48524         0.75057     36369.38419
      -164.95124         1.40551         1.44502     38683.45156
      -166.06373        -1.26006         1.56186     38683.45156
      -164.37172        -1.22411         0.22677     38683.45156
      -164.95124         1.40551         1.44502     38683.45156
      -167.05193         1.76632         1.97598     41416.08447
      -168.19682        -1.29661         2.16973     41416.08447
      -166.06373        -1.26006         1.56186     41416.08447
      -167.05193         1.76632         1.97598     41416.08447
      -169.35988         2.02693         2.49599     41856.42564
      -170.39314        -1.33271         2.60825     41856.42564
      -168.19682        -1.29661         2.16973     41856.42564
      -169.35988         2.02693         2.49599     41856.42564
      -171.81862         2.19209         3.00402     41506.64020
      -172.55150        -1.36850         3.07688     41506.64020
      -170.39314        -1.33271         2.60825     41506.64020
      -171.81862         2.19209         3.00402     41506.64020
      -174.21399         2.24929         3.54470     39575.50660
      -174.72409        -1.40437         3.53071     39575.50660
      -172.55150        -1.36850         3.07688     39575.50660
      -174.21399         2.24929         3.54470     39575.50660
      -163.08096        12.01847         2.55013     25328.17295
      -160.11887        13.56468         2.41775     25328.17295
      -160.14005        16.08961         3.28725     25328.17295
      -163.10327        14.82179         3.35363     25328.17295
      -160.11887        13.56468         2.41775     18958.74139
      -157.14710        14.77727         2.20762     18958.74139
      -157.16892        17.32143         3.22040     18958.74139
      -160.14005        16.08961         3.28725     18958.74139
      -157.14710        14.77727         2.20762      9743.58912
      -154.16165        15.94143         1.99544      9743.58912
      -154.18161        18.49098         3.15267      9743.58912
      -157.16892        17.32143         3.22040      9743.58912
      -154.16165        15.94143         1.99544       718.54785
      -151.15587        17.03551         1.77960       718.54785
      -151.16989        19.57193         3.08367       718.54785
      -154.18161        18.49098         3.15267       718.54785
      -151.15587        17.03551         1.77960     -8281.13399
      -148.12311        18.03787         1.55847     -8281.13399
      -148.12551        20.53802         3.01298     -8281.13399
      -151.16989        19.57193         3.08367     -8281.13399
      -148.12311        18.03787         1.55847    -14805.57361
      -145.05681        18.92728         1.33046    -14805.57361
      -145.04041        21.36338         2.94021    -14805.57361
      -148.12551        20.53802         3.01298    -14805.57361
      -145.05681        18.92728         1.33046    -17537.39523
      -141.95593        19.69837         1.09596    -17537.39523
      -141.91370        22.03993         2.86527    -17537.39523
      -145.04041        21.36338         2.94021    -17537.39523
      -141.95593        19.69837         1.09596    -19803.23749
      -138.82662        20.36644         0.85788    -19803.23749
      -138.75378        22.58258         2.78850    -19803.23749
      -141.91370        22.03993         2.86527    -19803.23749
      -138.82662        20.36644         0.85788    -23532.00434
      -135.67550        20.94821         0.61930    -23532.00434
      -135.56973        23.00778         2.71023    -23532.00434
      -138.75378        22.58258         2.78850    -23532.00434
      -135.67550        20.94821         0.61930    -29268.88979
      -132.50917        21.46039         0.38330    -29268.88979
      -132.37054        23.33195         2.63084    -29268.88979
      -135.56973        23.00778         2.71023    -29268.88979
      -132.50917        21.46039         0.38330    -33007.61550
      -129.33423        21.91967         0.15298    -33007.61550
      -129.16527        23.57157         2.55066    -33007.61550
      -132.37054        23.33195         2.63084    -33007.61550
      -129.33423        21.91967         0.15298    -34202.94514
      -126.15601        22.33930        -0.06876    -34202.94514
      -125.96097        23.74257         2.47000    -34202.94514
      -129.16527        23.57157         2.55066    -34202.94514
      -126.15601        22.33930        -0.06876    -36850.95594
      -122.97506        22.72003        -0.27962    -36850.95594
      -122.75830        23.85949         2.38898    -36850.95594
      -125.96097        23.74257         2.47000    -36850.95594
      -122.97506        22.72003        -0.27962    -42154.70582
      -119.79086        23.05974        -0.47746    -42154.70582
      -119.55664        23.93649         2.30769    -42154.70582
      -122.75830        23.85949         2.38898    -42154.70582
      -119.79086        23.05974        -0.47746    -48992.88980
      -116.60295        23.35635        -0.66013    -48992.88980
      -116.35544        23.98778         2.22623    -48992.88980
      -119.55664        23.93649         2.30769    -48992.88980
      -116.60295        23.35635        -0.66013    -53588.05780
      -113.41076        23.60775        -0.82547    -53588.05780
      -113.15406        24.02755         2.14467    -53588.05780
      -116.35544        23.98778         2.22623    -53588.05780
      -113.41076        23.60775        -0.82547    -54955.18416
      -110.21390        23.81246        -0.97176    -54955.18416
      -109.95199        24.06869         2.06311    -54955.18416
      -113.15406        24.02755         2.14467    -54955.18416
      -110.21390        23.81246        -0.97176    -55894.71282
      -107.01292        23.97465        -1.10124    -55894.71282
      -106.74918        24.11432         1.98156    -55894.71282
      -109.95199        24.06869         2.06311    -55894.71282
      -107.01292        23.97465        -1.10124    -56104.68717
      -103.80886        24.10149        -1.21824    -56104.68717
      -103.54588        24.16314         1.90002    -56104.68717
      -106.74918        24.11432         1.98156    -56104.68717
      -103.80886        24.10149        -1.21824    -54839.19379
      -100.60275        24.20021        -1.32711    -54839.19379
      -100.34227        24.21380         1.81849    -54839.19379
      -103.54588        24.16314         1.90002    -54839.19379
      -100.60275        24.20021        -1.32711    -51407.23628
       -97.39565        24.27803        -1.43222    -51407.23628
       -97.13860        24.26493         1.73696    -51407.23628
      -100.34227        24.21380         1.81849    -51407.23628
       -97.39565        24.27803        -1.43222    -46060.92577
       -94.18859        24.34206        -1.53784    -46060.92577
       -93.93504        24.31528         1.65542    -46060.92577
       -97.13860        24.26493         1.73696    -46060.92577
       -94.18859        24.34206        -1.53784    -39189.33528
       -90.98203        24.39725        -1.64580    -39189.33528
       -90.73169        24.36434         1.57389    -39189.33528
       -93.93504        24.31528         1.65542    -39189.33528
       -90.98203        24.39725        -1.64580    -30994.96189
       -87.77589        24.44605        -1.75528    -30994.96189
       -87.52850        24.41245         1.49234    -30994.96189
       -90.73169        24.36434         1.57389    -30994.96189
       -87.77589        24.44605        -1.75528    -22787.73206
       -84.56995        24.49083        -1.86527    -22787.73206
       -84.32539        24.45997         1.41080    -22787.73206
       -87.52850        24.41245         1.49234    -22787.73206
       -84.56995        24.49083        -1.86527    -15320.14736
       -81.36408        24.53395        -1.97481    -15320.14736
       -81.12233        24.50726         1.32926    -15320.14736
       -84.32539        24.45997         1.41080    -15320.14736
       -81.36408        24.53395        -1.97481     -8743.63449
       -78.15815        24.57773        -2.08290     -8743.63449
       -77.91925        24.55467         1.24772     -8743.63449
       -81.12233        24.50726         1.32926     -8743.63449
       -78.15815        24.57773        -2.08290     -3677.65494
       -74.95205        24.62374        -2.18900     -3677.65494
       -74.71608        24.60242         1.16617     -3677.65494
       -77.91925        24.55467         1.24772     -3677.65494
       -74.95205        24.62374        -2.18900      -236.68948
       -71.74573        24.67159        -2.29351      -236.68948
       -71.51298        24.65046         1.08463      -236.68948
       -74.71608        24.60242         1.16617      -236.68948
       -71.74573        24.67159        -2.29351      3266.25407
       -68.53929        24.72067        -2.39695      3266.25407
       -68.30969        24.69868         1.00309      3266.25407
       -71.51298        24.65046         1.08463      3266.25407
       -68.53929        24.72067        -2.39695      7542.35970
       -65.33285        24.77034        -2.49988      7542.35970
       -65.10649        24.74699         0.92155      7542.35970
       -68.30969        24.69868         1.00309      7542.35970
       -65.33285        24.77034        -2.49988     11658.66645
       -62.12651        24.81999        -2.60283     11658.66645
       -61.90329        24.79529         0.84001     11658.66645
       -65.10649        24.74699         0.92155     11658.66645
       -62.12651        24.81999        -2.60283     13412.54915
       -58.92008        24.86910        -2.70624     13412.54915
       -58.69999        24.84351         0.75847     13412.54915
       -61.90329        24.79529         0.84001     13412.54915
       -58.92008        24.86910        -2.70624     12886.45118
       -55.71374        24.91765        -2.80989     12886.45118
       -55.49689        24.89164         0.67693     12886.45118
       -58.69999        24.84351         0.75847     12886.45118
       -55.71374        24.91765        -2.80989     13394.68134
       -52.50740        24.96584        -2.91344     13394.68134
       -52.29369        24.93972         0.59539     13394.68134
       -55.49689        24.89164         0.67693     13394.68134
       -52.50740        24.96584        -2.91344     15346.01876
       -49.30104        25.01383        -3.01648     15346.01876
       -49.09049        24.98777         0.51385     15346.01876
       -52.29369        24.93972         0.59539     15346.01876
       -49.30104        25.01383        -3.01648     17760.94833
       -46.09466        25.06180        -3.11864     17760.94833
       -45.88729        25.03582         0.43231     17760.94833
       -49.09049        24.98777         0.51385     17760.94833
       -46.09466        25.06180        -3.11864     19604.96926
       -42.88825        25.10989        -3.21952     19604.96926
       -42.68409        25.08388         0.35077     19604.96926
       -45.88729        25.03582         0.43231     19604.96926
       -42.88825        25.10989        -3.21952     21014.81176
       -39.68179        25.15814        -3.31884     21014.81176
       -39.48089        25.13196         0.26922     21014.81176
       -42.68409        25.08388         0.35077     21014.81176
       -39.68179        25.15814        -3.31884     22380.93555
       -36.47519        25.20648        -3.41631     22380.93555
       -36.27769        25.18007         0.18768     22380.93555
       -39.48089        25.13196         0.26922     22380.93555
       -36.47519        25.20648        -3.41631     23564.66942
       -33.26865        25.25483        -3.51163     23564.66942
       -33.07448        25.22818         0.10614     23564.66942
       -36.27769        25.18007         0.18768     23564.66942
       -33.26865        25.25483        -3.51163     25208.22178
       -30.06194        25.30311        -3.60457     25208.22178
       -29.87128        25.27629         0.02460     25208.22178
       -33.07448        25.22818         0.10614     25208.22178
       -30.06194        25.30311        -3.60457     27646.58902
       -26.85516        25.35126        -3.69484     27646.58902
       -26.66808        25.32440        -0.05694     27646.58902
       -29.87128        25.27629         0.02460     27646.58902
       -26.85516        25.35126        -3.69484     30256.77550
       -23.64841        25.39927        -3.78250     30256.77550
       -23.46488        25.37251        -0.13848     30256.77550
       -26.66808        25.32440        -0.05694     30256.77550
       -23.64841        25.39927        -3.78250     32229.14973
       -20.44151        25.44725        -3.86812     32229.14973
       -20.26170        25.42061        -0.22002     32229.14973
       -23.46488        25.37251        -0.13848     32229.14973
       -20.44151        25.44725        -3.86812     32941.03996
       -17.23457        25.49533        -3.95229     32941.03996
       -17.05849        25.46871        -0.30156     32941.03996
       -20.26170        25.42061        -0.22002     32941.03996
       -17.23457        25.49533        -3.95229     33101.86907
       -14.02771        25.54363        -4.03559     33101.86907
       -13.85529        25.51680        -0.38310     33101.86907
       -17.05849        25.46871        -0.30156     33101.86907
       -14.02771        25.54363        -4.03559     32595.78212
       -10.82075        25.59227        -4.11860     32595.78212
       -10.65209        25.56490        -0.46464     32595.78212
       -13.85529        25.51680        -0.38310     32595.78212
       -10.82075        25.59227        -4.11860     31201.63339
        -7.61380        25.64127        -4.20168     31201.63339
        -7.44889        25.61300        -0.54619     31201.63339
       -10.65209        25.56490        -0.46464     31201.63339
        -7.61380        25.64127        -4.20168     28925.73895
        -4.40684        25.69033        -4.28450     28925.73895
        -4.24569        25.66110        -0.62773     28925.73895
        -7.44889        25.61300        -0.54619     28925.73895
        -4.40684        25.69033        -4.28450     25939.61035
        -1.19986        25.73912        -4.36660     25939.61035
        -1.04249        25.70920        -0.70927     25939.61035
        -4.24569        25.66110        -0.62773     25939.61035
        -1.19986        25.73912        -4.36660     21740.87545
         2.00705        25.78728        -4.44751     21740.87545
         2.16071        25.75730        -0.79081     21740.87545
        -1.04249        25.70920        -0.70927     21740.87545
         2.00705        25.78728        -4.44751     16601.45204
         5.21413        25.83447        -4.52676     16601.45204
         5.36392        25.80540        -0.87235     16601.45204
         2.16071        25.75730        -0.79081     16601.45204
         5.21413        25.83447        -4.52676     11424.63024
         8.42117        25.88047        -4.60390     11424.63024
         8.56701        25.85350        -0.95389     11424.63024
         5.36392        25.80540        -0.87235     11424.63024
         8.42117        25.88047        -4.60390      7144.63735
        11.62838        25.92602        -4.67859      7144.63735
        11.77021        25.90160        -1.03543      7144.63735
         8.56701        25.85350        -0.95389      7144.63735
        11.62838        25.92602        -4.67859      3767.04125
        14.83566        25.97220        -4.75058      3767.04125
        14.97341        25.94970        -1.11697      3767.04125
        11.77021        25.90160        -1.03543      3767.04125
        14.83566        25.97220        -4.75058      1265.32297
        18.04289        26.02013        -4.81953      1265.32297
        18.17661        25.99780        -1.19851      1265.32297
        14.97341        25.94970        -1.11697      1265.32297
        18.04289        26.02013        -4.81953      -910.40563
        21.25026        26.07091        -4.88521      -910.40563
        21.37981        26.04590        -1.28005      -910.40563
        18.17661        25.99780        -1.19851      -910.40563
        21.25026        26.07091        -4.88521     -2447.93976
        24.45755        26.12549        -4.94731     -2447.93976
        24.58302        26.09400        -1.36159     -2447.93976
        21.37981        26.04590        -1.28005     -2447.93976
        24.45755        26.12549        -4.94731     -3681.53603
        27.66500        26.18231        -5.00605     -3681.53603
        27.78622        26.14210        -1.44313     -3681.53603
        24.58302        26.09400        -1.36159     -3681.53603
        27.66500        26.18231        -5.00605     -5246.61925
        30.87254        26.23748        -5.06201     -5246.61925
        30.98942        26.19020        -1.52468     -5246.61925
        27.78622        26.14210        -1.44313     -5246.61925
        30.87254        26.23748        -5.06201     -5741.84762
        34.08003        26.28707        -5.11578     -5741.84762
        34.19260        26.23830        -1.60622     -5741.84762
        30.98942        26.19020        -1.52468     -5741.84762
        34.08003        26.28707        -5.11578     -5893.43061
        37.28770        26.32711        -5.16798     -5893.43061
        37.39581        26.28640        -1.68776     -5893.43061
        34.19260        26.23830        -1.60622     -5893.43061
        37.28770        26.32711        -5.16798     -8536.14418
        40.49539        26.35372        -5.21919     -8536.14418
        40.59901        26.33449        -1.76930     -8536.14418
        37.39581        26.28640        -1.68776     -8536.14418
        40.49539        26.35372        -5.21919    -14775.96588
        43.70333        26.36532        -5.26981    -14775.96588
        43.80221        26.38259        -1.85084    -14775.96588
        40.59901        26.33449        -1.76930    -14775.96588
        43.70333        26.36532        -5.26981    -22710.85364
        46.91128        26.36469        -5.31989    -22710.85364
        47.00541        26.43070        -1.93238    -22710.85364
        43.80221        26.38259        -1.85084    -22710.85364
        46.91128        26.36469        -5.31989    -28624.86244
        50.11927        26.35505        -5.36944    -28624.86244
        50.20861        26.47880        -2.01392    -28624.86244
        47.00541        26.43070        -1.93238    -28624.86244
        50.11927        26.35505        -5.36944    -31614.11317
        53.32737        26.33960        -5.41844    -31614.11317
        53.41171        26.52690        -2.09546    -31614.11317
        50.20861        26.47880        -2.01392    -31614.11317
        53.32737        26.33960        -5.41844    -38295.85709
        56.53551        26.32157        -5.46692    -38295.85709
        56.61491        26.57500        -2.17700    -38295.85709