 VARIABLES= "X","Y","Z","PRESS"  
ZONE N=                                       27712 E=                             6928 F=FEPOINT, ET=QUADRILATERAL
      -167.90810        -0.25605        -4.64090     38206.69976
      -166.61779         0.55308        -4.74856     38206.69976
      -166.46794        -0.24106        -4.14188     38206.69976
      -167.90810        -0.25605        -4.64090     38206.69976
      -166.61779         0.55308        -4.74856     38105.02678
      -167.90810        -0.25605        -4.64090     38105.02678
      -167.92148         0.34276        -4.92699     38105.02678
      -166.61779         0.55308        -4.74856     38105.02678
      -166.46794        -0.24106        -4.14188     37991.96622
      -165.29589         0.66729        -4.58421     37991.96622
      -165.05017        -0.22657        -3.55837     37991.96622
      -166.46794        -0.24106        -4.14188     37991.96622
      -165.29589         0.66729        -4.58421     37771.73938
      -166.46794        -0.24106        -4.14188     37771.73938
      -166.61779         0.55308        -4.74856     37771.73938
      -165.29589         0.66729        -4.58421     37771.73938
      -165.05017        -0.22657        -3.55837     37935.83769
      -164.01824         0.63828        -4.28083     37935.83769
      -163.80166        -0.21470        -2.73973     37935.83769
      -165.05017        -0.22657        -3.55837     37935.83769
      -164.01824         0.63828        -4.28083     37591.68285
      -165.05017        -0.22657        -3.55837     37591.68285
      -165.29589         0.66729        -4.58421     37591.68285
      -164.01824         0.63828        -4.28083     37591.68285
      -163.80166        -0.21470        -2.73973     39765.98581
      -163.00806         0.37500        -3.42532     39765.98581
      -162.95636        -0.20885        -1.43669     39765.98581
      -163.80166        -0.21470        -2.73973     39765.98581
      -163.00806         0.37500        -3.42532     37519.86216
      -163.80166        -0.21470        -2.73973     37519.86216
      -164.01824         0.63828        -4.28083     37519.86216
      -163.00806         0.37500        -3.42532     37519.86216
      -167.92148         0.34276        -4.92699     37731.30620
      -166.70190         0.74137        -5.70402     37731.30620
      -166.61779         0.55308        -4.74856     37731.30620
      -167.92148         0.34276        -4.92699     37731.30620
      -166.70190         0.74137        -5.70402     37894.43743
      -167.92148         0.34276        -4.92699     37894.43743
      -167.93837         0.60735        -5.53853     37894.43743
      -166.70190         0.74137        -5.70402     37894.43743
      -166.61779         0.55308        -4.74856     37837.21081
      -165.46471         0.89872        -5.84836     37837.21081
      -165.29589         0.66729        -4.58421     37837.21081
      -166.61779         0.55308        -4.74856     37837.21081
      -165.46471         0.89872        -5.84836     37623.74191
      -166.61779         0.55308        -4.74856     37623.74191
      -166.70190         0.74137        -5.70402     37623.74191
      -165.46471         0.89872        -5.84836     37623.74191
      -165.29589         0.66729        -4.58421     37733.85185
      -164.21881         0.99965        -5.89274     37733.85185
      -164.01824         0.63828        -4.28083     37733.85185
      -165.29589         0.66729        -4.58421     37733.85185
      -164.21881         0.99965        -5.89274     37435.91119
      -165.29589         0.66729        -4.58421     37435.91119
      -165.46471         0.89872        -5.84836     37435.91119
      -164.21881         0.99965        -5.89274     37435.91119
      -164.01824         0.63828        -4.28083     37714.33256
      -163.05987         0.99031        -5.40275     37714.33256
      -163.00806         0.37500        -3.42532     37714.33256
      -164.01824         0.63828        -4.28083     37714.33256
      -163.05987         0.99031        -5.40275     36883.72444
      -164.01824         0.63828        -4.28083     36883.72444
      -164.21881         0.99965        -5.89274     36883.72444
      -163.05987         0.99031        -5.40275     36883.72444
      -167.93837         0.60735        -5.53853     36613.81071
      -166.77447         0.54206        -6.62172     36613.81071
      -166.70190         0.74137        -5.70402     36613.81071
      -167.93837         0.60735        -5.53853     36613.81071
      -166.77447         0.54206        -6.62172     35143.70830
      -167.93837         0.60735        -5.53853     35143.70830
      -167.94921         0.34619        -6.15149     35143.70830
      -166.77447         0.54206        -6.62172     35143.70830
      -166.70190         0.74137        -5.70402     37015.59379
      -165.58828         0.74762        -7.05657     37015.59379
      -165.46471         0.89872        -5.84836     37015.59379
      -166.70190         0.74137        -5.70402     37015.59379
      -165.58828         0.74762        -7.05657     36412.97574
      -166.70190         0.74137        -5.70402     36412.97574
      -166.77447         0.54206        -6.62172     36412.97574
      -165.58828         0.74762        -7.05657     36412.97574
      -165.46471         0.89872        -5.84836     36725.38124
      -164.37464         0.90192        -7.43800     36725.38124
      -164.21881         0.99965        -5.89274     36725.38124
      -165.46471         0.89872        -5.84836     36725.38124
      -164.37464         0.90192        -7.43800     36222.34348
      -165.46471         0.89872        -5.84836     36222.34348
      -165.58828         0.74762        -7.05657     36222.34348
      -164.37464         0.90192        -7.43800     36222.34348
      -164.21881         0.99965        -5.89274     36409.01960
      -163.10746         1.07593        -7.46437     36409.01960
      -163.05987         0.99031        -5.40275     36409.01960
      -164.21881         0.99965        -5.89274     36409.01960
      -163.10746         1.07593        -7.46437     35736.78107
      -164.21881         0.99965        -5.89274     35736.78107
      -164.37464         0.90192        -7.43800     35736.78107
      -163.10746         1.07593        -7.46437     35736.78107
      -167.94921         0.34619        -6.15149     35736.82547
      -166.78021        -0.23589        -7.12830     35736.82547
      -166.77447         0.54206        -6.62172     35736.82547
      -167.94921         0.34619        -6.15149     35736.82547
      -166.78021        -0.23589        -7.12830     35756.37076
      -167.94921         0.34619        -6.15149     35756.37076
      -167.94885        -0.25125        -6.44096     35756.37076
      -166.78021        -0.23589        -7.12830     35756.37076
      -166.77447         0.54206        -6.62172     35533.73236
      -165.58960        -0.22039        -7.77678     35533.73236
      -165.58828         0.74762        -7.05657     35533.73236
      -166.77447         0.54206        -6.62172     35533.73236
      -165.58960        -0.22039        -7.77678     35486.84445
      -166.77447         0.54206        -6.62172     35486.84445
      -166.78021        -0.23589        -7.12830     35486.84445
      -165.58960        -0.22039        -7.77678     35486.84445
      -165.58828         0.74762        -7.05657     34987.20024
      -164.37358        -0.20475        -8.37636     34987.20024
      -164.37464         0.90192        -7.43800     34987.20024
      -165.58828         0.74762        -7.05657     34987.20024
      -164.37358        -0.20475        -8.37636     34765.09230
      -165.58828         0.74762        -7.05657     34765.09230
      -165.58960        -0.22039        -7.77678     34765.09230
      -164.37358        -0.20475        -8.37636     34765.09230
      -164.37464         0.90192        -7.43800     34951.70706
      -163.12544        -0.18894        -8.90569     34951.70706
      -163.10746         1.07593        -7.46437     34951.70706
      -164.37464         0.90192        -7.43800     34951.70706
      -163.12544        -0.18894        -8.90569     34161.44463
      -164.37464         0.90192        -7.43800     34161.44463
      -164.37358        -0.20475        -8.37636     34161.44463
      -163.12544        -0.18894        -8.90569     34161.44463
       175.11002         4.69756       -15.51309    -34092.60167
       175.10239         3.69671       -16.36205    -34092.60167
       176.65569         3.71257       -15.71685    -34092.60167
       175.11002         4.69756       -15.51309    -34092.60167
       176.65912         4.68748       -14.86277    -33059.34732
       176.65569         3.71257       -15.71685    -33059.34732
       178.18920         3.72807       -15.02564    -33059.34732
       176.65912         4.68748       -14.86277    -33059.34732
       178.16033         4.69765       -14.08650    -32480.54574
       178.18920         3.72807       -15.02564    -32480.54574
       179.70057         3.74317       -14.28763    -32480.54574
       178.16033         4.69765       -14.08650    -32480.54574
       179.62785         4.69794       -13.25036    -32029.50652
       179.70057         3.74317       -14.28763    -32029.50652
       181.16398         3.75747       -13.45871    -32029.50652
       179.62785         4.69794       -13.25036    -32029.50652
       181.04453         4.70442       -12.30604    -31532.77011
       181.16398         3.75747       -13.45871    -31532.77011
       182.54578         3.77045       -12.50028    -31532.77011
       181.04453         4.70442       -12.30604    -31532.77011
       182.38452         4.66216       -11.21898    -31172.79748
       182.54578         3.77045       -12.50028    -31172.79748
       183.80130         3.78151       -11.37846    -31172.79748
       182.38452         4.66216       -11.21898    -31172.79748
       183.62358         4.54194        -9.95471    -31101.53322
       183.80130         3.78151       -11.37846    -31101.53322
       184.80190         3.78901       -10.03513    -31101.53322
       183.62358         4.54194        -9.95471    -31101.53322
       184.72459         4.33506        -8.57775    -31600.24430
       184.80190         3.78901       -10.03513    -31600.24430
       185.47884         3.79222        -8.48855    -31600.24430
       184.72459         4.33506        -8.57775    -31600.24430
      -162.92274         1.47701         0.91185     44444.24507
      -164.34776        -0.23010         0.39267     44444.24507
      -162.95636        -0.20885        -1.43669     44444.24507
      -162.92274         1.47701         0.91185     44444.24507
      -164.92128         2.40758         1.59577     45843.44838
      -166.04342        -0.25336         1.72290     45843.44838
      -164.34776        -0.23010         0.39267     45843.44838
      -164.92128         2.40758         1.59577     45843.44838
      -167.02191         2.77824         2.11877     48373.46791
      -168.17807        -0.27951         2.32471     48373.46791
      -166.04342        -0.25336         1.72290     48373.46791
      -167.02191         2.77824         2.11877     48373.46791
      -169.33010         3.04937         2.63071     49505.05961
      -170.37546        -0.30587         2.75701     49505.05961
      -168.17807        -0.27951         2.32471     49505.05961
      -169.33010         3.04937         2.63071     49505.05961
      -171.78937         3.22550         3.13075     50196.22767
      -172.53499        -0.33190         3.21953     50196.22767
      -170.37546        -0.30587         2.75701     50196.22767
      -171.78937         3.22550         3.13075     50196.22767
      -174.18575         3.29363         3.66414     49152.97773
      -174.70870        -0.35804         3.66721     49152.97773
      -172.53499        -0.33190         3.21953     49152.97773
      -174.18575         3.29363         3.66414     49152.97773
      -163.01669        13.01898         2.65235     48330.94753
      -160.04911        14.55431         2.52071     48330.94753
      -160.06376        17.08360         3.37725     48330.94753
      -163.03129        15.82629         3.44148     48330.94753
      -160.04911        14.55431         2.52071     43994.03369
      -157.07282        15.75561         2.31305     43994.03369
      -157.08844        18.30489         3.31275     43994.03369
      -160.06376        17.08360         3.37725     43994.03369
      -157.07282        15.75561         2.31305     38379.32682
      -154.08303        16.90844         2.10362     38379.32682
      -154.09717        19.46383         3.24774     38379.32682
      -157.08844        18.30489         3.31275     38379.32682
      -154.08303        16.90844         2.10362     32778.42217
      -151.07314        17.99110         1.89095     32778.42217
      -151.08180        20.53412         3.18197     32778.42217
      -154.09717        19.46383         3.24774     32778.42217
      -151.07314        17.99110         1.89095     26816.94935
      -148.03658        18.98193         1.67353     26816.94935
      -148.03417        21.48941         3.11520     26816.94935
      -151.08180        20.53412         3.18197     26816.94935
      -148.03658        18.98193         1.67353     19409.74429
      -144.96687        19.85966         1.44991     19409.74429
      -144.94632        22.30386         3.04717     19409.74429
      -148.03417        21.48941         3.11520     19409.74429
      -144.96687        19.85966         1.44991     10942.27082
      -141.86299        20.61894         1.22049     10942.27082
      -141.81740        22.96935         2.97785     10942.27082
      -144.94632        22.30386         3.04717     10942.27082
      -141.86299        20.61894         1.22049      1123.24896
      -138.73104        21.27510         0.98810      1123.24896
      -138.65573        23.50083         2.90747      1123.24896
      -141.81740        22.96935         2.97785      1123.24896
      -138.73104        21.27510         0.98810     -8677.66124
      -135.57758        21.84489         0.75571     -8677.66124
      -135.47035        23.91478         2.83627     -8677.66124
      -138.65573        23.50083         2.90747     -8677.66124
      -135.57758        21.84489         0.75571    -17969.97232
      -132.40917        22.34505         0.52630    -17969.97232
      -132.27019        24.22766         2.76449    -17969.97232
      -135.47035        23.91478         2.83627    -17969.97232
      -132.40917        22.34505         0.52630    -26912.60755
      -129.23235        22.79232         0.30286    -26912.60755
      -129.06424        24.45596         2.69238    -26912.60755
      -132.27019        24.22766         2.76449    -26912.60755
      -129.23235        22.79232         0.30286    -34004.07504
      -126.05242        23.19997         0.08821    -34004.07504
      -125.85951        24.61566         2.62013    -34004.07504
      -129.06424        24.45596         2.69238    -34004.07504
      -126.05242        23.19997         0.08821    -39016.88451
      -122.86993        23.56878        -0.11536    -39016.88451
      -122.65659        24.72128         2.54779    -39016.88451
      -125.85951        24.61566         2.62013    -39016.88451
      -122.86993        23.56878        -0.11536    -40875.63957
      -119.68437        23.89663        -0.30570    -40875.63957
      -119.45484        24.78699         2.47538    -40875.63957
      -122.65659        24.72128         2.54779    -40875.63957
      -119.68437        23.89663        -0.30570    -38845.03073
      -116.49529        24.18145        -0.48063    -38845.03073
      -116.25363        24.82700         2.40292    -38845.03073
      -119.45484        24.78699         2.47538    -38845.03073
      -116.49529        24.18145        -0.48063    -33304.86820
      -113.30214        24.42114        -0.63799    -33304.86820
      -113.05227        24.85547         2.33043    -33304.86820
      -116.25363        24.82700         2.40292    -33304.86820
      -113.30214        24.42114        -0.63799    -23945.82193
      -110.10455        24.61422        -0.77606    -23945.82193
      -109.85023        24.88532         2.25793    -23945.82193
      -113.05227        24.85547         2.33043    -23945.82193
      -110.10455        24.61422        -0.77606    -12328.77149
      -106.90304        24.76486        -0.89709    -12328.77149
      -106.64743        24.91966         2.18542    -12328.77149
      -109.85023        24.88532         2.25793    -12328.77149
      -106.90304        24.76486        -0.89709       745.18877
      -103.69859        24.88022        -1.00546       745.18877
      -103.44412        24.95718         2.11290       745.18877
      -106.64743        24.91966         2.18542       745.18877
      -103.69859        24.88022        -1.00546     14012.37485
      -100.49223        24.96748        -1.10554     14012.37485
      -100.24050        24.99654         2.04039     14012.37485
      -103.44412        24.95718         2.11290     14012.37485
      -100.49223        24.96748        -1.10554     26467.12940
       -97.28496        25.03387        -1.20176     26467.12940
       -97.03682        25.03638         1.96787     26467.12940
      -100.24050        24.99654         2.04039     26467.12940
       -97.28496        25.03387        -1.20176     37172.56714
       -94.07777        25.08646        -1.29841     37172.56714
       -93.83326        25.07543         1.89536     37172.56714
       -97.03682        25.03638         1.96787     37172.56714
       -94.07777        25.08646        -1.29841     45840.37346
       -90.87111        25.13021        -1.39737     45840.37346
       -90.62990        25.11320         1.82284     45840.37346
       -93.83326        25.07543         1.89536     45840.37346
       -90.87111        25.13021        -1.39737     51911.16897
       -87.66489        25.16756        -1.49781     51911.16897
       -87.42671        25.15001         1.75033     51911.16897
       -90.62990        25.11320         1.82284     51911.16897
       -87.66489        25.16756        -1.49781     55910.31402
       -84.45889        25.20089        -1.59874     55910.31402
       -84.22360        25.18624         1.67782     55910.31402
       -87.42671        25.15001         1.75033     55910.31402
       -84.45889        25.20089        -1.59874     58247.55330
       -81.25296        25.23255        -1.69922     58247.55330
       -81.02054        25.22223         1.60531     58247.55330
       -84.22360        25.18624         1.67782     58247.55330
       -81.25296        25.23255        -1.69922     58750.68304
       -78.04697        25.26490        -1.79825     58750.68304
       -77.81746        25.25835         1.53280     58750.68304
       -81.02054        25.22223         1.60531     58750.68304
       -78.04697        25.26490        -1.79825     58831.07057
       -74.84081        25.29947        -1.89529     58831.07057
       -74.61430        25.29480         1.46029     58831.07057
       -77.81746        25.25835         1.53280     58831.07057
       -74.84081        25.29947        -1.89529     57775.55396
       -71.63442        25.33590        -1.99076     57775.55396
       -71.41120        25.33154         1.38778     57775.55396
       -74.61430        25.29480         1.46029     57775.55396
       -71.63442        25.33590        -1.99076     56577.74211
       -68.42792        25.37355        -2.08517     56577.74211
       -68.20790        25.36847         1.31526     56577.74211
       -71.41120        25.33154         1.38778     56577.74211
       -68.42792        25.37355        -2.08517     54973.41213
       -65.22142        25.41181        -2.17907     54973.41213
       -65.00470        25.40548         1.24275     54973.41213
       -68.20790        25.36847         1.31526     54973.41213
       -65.22142        25.41181        -2.17907     52617.81412
       -62.01502        25.45004        -2.27298     52617.81412
       -61.80150        25.44249         1.17024     52617.81412
       -65.00470        25.40548         1.24275     52617.81412
       -62.01502        25.45004        -2.27298     49873.68220
       -58.80852        25.48773        -2.36736     49873.68220
       -58.59821        25.47942         1.09773     49873.68220
       -61.80150        25.44249         1.17024     49873.68220
       -58.80852        25.48773        -2.36736     46055.72529
       -55.60212        25.52486        -2.46197     46055.72529
       -55.39510        25.51625         1.02522     46055.72529
       -58.59821        25.47942         1.09773     46055.72529
       -55.60212        25.52486        -2.46197     41491.41726
       -52.39572        25.56163        -2.55648     41491.41726
       -52.19190        25.55303         0.95270     41491.41726
       -55.39510        25.51625         1.02522     41491.41726
       -52.39572        25.56163        -2.55648     36021.41642
       -49.18930        25.59820        -2.65048     36021.41642
       -48.98871        25.58979         0.88019     36021.41642
       -52.19190        25.55303         0.95270     36021.41642
       -49.18930        25.59820        -2.65048     29873.37951
       -45.98286        25.63475        -2.74359     29873.37951
       -45.78551        25.62654         0.80768     29873.37951
       -48.98871        25.58979         0.88019     29873.37951
       -45.98286        25.63475        -2.74359     23399.70054
       -42.77640        25.67144        -2.83544     23399.70054
       -42.58230        25.66331         0.73517     23399.70054
       -45.78551        25.62654         0.80768     23399.70054
       -42.77640        25.67144        -2.83544     16925.19171
       -39.56989        25.70830        -2.92572     16925.19171
       -39.37910        25.70009         0.66266     16925.19171
       -42.58230        25.66331         0.73517     16925.19171
       -39.56989        25.70830        -2.92572     10881.79003
       -36.36324        25.74524        -3.01414     10881.79003
       -36.17590        25.73691         0.59014     10881.79003
       -39.37910        25.70009         0.66266     10881.79003
       -36.36324        25.74524        -3.01414      5515.40504
       -33.15666        25.78221        -3.10043      5515.40504
       -32.97270        25.77372         0.51763      5515.40504
       -36.17590        25.73691         0.59014      5515.40504
       -33.15666        25.78221        -3.10043      1124.44569
       -29.94992        25.81913        -3.18433      1124.44569
       -29.76950        25.81054         0.44512      1124.44569
       -32.97270        25.77372         0.51763      1124.44569
       -29.94992        25.81913        -3.18433     -2271.88389
       -26.74311        25.85592        -3.26556     -2271.88389
       -26.56630        25.84735         0.37261     -2271.88389
       -29.76950        25.81054         0.44512     -2271.88389
       -26.74311        25.85592        -3.26556     -4849.60860
       -23.53635        25.89260        -3.34418     -4849.60860
       -23.36310        25.88417         0.30009     -4849.60860
       -26.56630        25.84735         0.37261     -4849.60860
       -23.53635        25.89260        -3.34418     -6798.04494
       -20.32944        25.92924        -3.42076     -6798.04494
       -20.15991        25.92097         0.22758     -6798.04494
       -23.36310        25.88417         0.30009     -6798.04494
       -20.32944        25.92924        -3.42076     -8593.71163
       -17.12249        25.96601        -3.49589     -8593.71163
       -16.95671        25.95777         0.15507     -8593.71163
       -20.15991        25.92097         0.22758     -8593.71163
       -17.12249        25.96601        -3.49589    -10474.88337
       -13.91562        26.00299        -3.57015    -10474.88337
       -13.75351        25.99457         0.08256    -10474.88337
       -16.95671        25.95777         0.15507    -10474.88337
       -13.91562        26.00299        -3.57015    -12764.26448
       -10.70866        26.04031        -3.64412    -12764.26448
       -10.55031        26.03137         0.01005    -12764.26448
       -13.75351        25.99457         0.08256    -12764.26448
       -10.70866        26.04031        -3.64412    -15624.68716
        -7.50170        26.07800        -3.71817    -15624.68716
        -7.34711        26.06818        -0.06247    -15624.68716
       -10.55031        26.03137         0.01005    -15624.68716
        -7.50170        26.07800        -3.71817    -19064.11184
        -4.29474        26.11574        -3.79195    -19064.11184
        -4.14391        26.10498        -0.13498    -19064.11184
        -7.34711        26.06818        -0.06247    -19064.11184
        -4.29474        26.11574        -3.79195    -22911.21713
        -1.08775        26.15322        -3.86502    -22911.21713
        -0.94070        26.14179        -0.20749    -22911.21713
        -4.14391        26.10498        -0.13498    -22911.21713
        -1.08775        26.15322        -3.86502    -26764.68599
         2.11915        26.19007        -3.93689    -26764.68599
         2.26250        26.17859        -0.28000    -26764.68599
        -0.94070        26.14179        -0.20749    -26764.68599
         2.11915        26.19007        -3.93689    -30179.76202
         5.32622        26.22597        -4.00709    -30179.76202
         5.46570        26.21540        -0.35251    -30179.76202
         2.26250        26.17859        -0.28000    -30179.76202
         5.32622        26.22597        -4.00709    -32753.79890
         8.53324        26.26069        -4.07518    -32753.79890
         8.66879        26.25220        -0.42502    -32753.79890
         5.46570        26.21540        -0.35251    -32753.79890
         8.53324        26.26069        -4.07518    -34254.38575
        11.74043        26.29496        -4.14082    -34254.38575
        11.87199        26.28901        -0.49754    -34254.38575
         8.66879        26.25220        -0.42502    -34254.38575
        11.74043        26.29496        -4.14082    -34348.95723
        14.94767        26.32988        -4.20376    -34348.95723
        15.07520        26.32581        -0.57005    -34348.95723
        11.87199        26.28901        -0.49754    -34348.95723
        14.94767        26.32988        -4.20376    -33412.94401
        18.15487        26.36657        -4.26367    -33412.94401
        18.27840        26.36262        -0.64256    -33412.94401
        15.07520        26.32581        -0.57005    -33412.94401
        18.15487        26.36657        -4.26367    -31441.22974
        21.36220        26.40612        -4.32032    -31441.22974
        21.48160        26.39942        -0.71507    -31441.22974
        18.27840        26.36262        -0.64256    -31441.22974
        21.36220        26.40612        -4.32032    -29071.53527
        24.56946        26.44950        -4.37342    -29071.53527
        24.68480        26.43623        -0.78758    -29071.53527
        21.48160        26.39942        -0.71507    -29071.53527
        24.56946        26.44950        -4.37342    -26808.43410
        27.77687        26.49512        -4.42317    -26808.43410
        27.88800        26.47303        -0.86010    -26808.43410
        24.68480        26.43623        -0.78758    -26808.43410
        27.77687        26.49512        -4.42317    -24951.89325
        30.98437        26.53911        -4.47013    -24951.89325
        31.09120        26.50984        -0.93261    -24951.89325
        27.88800        26.47303        -0.86010    -24951.89325
        30.98437        26.53911        -4.47013    -24261.97184
        34.19178        26.57754        -4.51486    -24261.97184
        34.29439        26.54664        -1.00512    -24261.97184
        31.09120        26.50984        -0.93261    -24261.97184
        34.19178        26.57754        -4.51486    -24576.14982
        37.39935        26.60642        -4.55798    -24576.14982
        37.49759        26.58344        -1.07763    -24576.14982
        34.29439        26.54664        -1.00512    -24576.14982
        37.39935        26.60642        -4.55798    -26018.03203
        40.60687        26.62188        -4.60004    -26018.03203
        40.70079        26.62024        -1.15015    -26018.03203
        37.49759        26.58344        -1.07763    -26018.03203
        40.60687        26.62188        -4.60004    -28137.29533
        43.81460        26.62234        -4.64144    -28137.29533
        43.90399        26.65704        -1.22266    -28137.29533
        40.70079        26.62024        -1.15015    -28137.29533
        43.81460        26.62234        -4.64144    -30320.06614
        47.02229        26.61056        -4.68223    -30320.06614
        47.10719        26.69386        -1.29517    -30320.06614
        43.90399        26.65704        -1.22266    -30320.06614
        47.02229        26.61056        -4.68223    -31947.05278
        50.22998        26.58978        -4.72245    -31947.05278
        50.31039        26.73066        -1.36768    -31947.05278
        47.10719        26.69386        -1.29517    -31947.05278
        50.22998        26.58978        -4.72245    -32254.29688
        53.43776        26.56319        -4.76209    -32254.29688
        53.51349        26.76747        -1.44019    -32254.29688
        50.31039        26.73066        -1.36768    -32254.29688
        53.43776        26.56319        -4.76209    -30930.57731
        56.64558        26.53403        -4.80119    -30930.57731
        56.71669        26.80427        -1.51270    -30930.57731