 VARIABLES= "X","Y","Z","PRESS"  
ZONE N=                                       27712 E=                             6928 F=FEPOINT, ET=QUADRILATERAL
      -167.88590        -1.49891        -6.52893     30060.27740
      -166.59119        -0.69680        -6.63476     30060.27740
      -166.44661        -1.49140        -6.02759     30060.27740
      -167.88590        -1.49891        -6.52893     30060.27740
      -166.59119        -0.69680        -6.63476     30166.04816
      -167.88590        -1.49891        -6.52893     30166.04816
      -167.89560        -0.90019        -6.81524     30166.04816
      -166.59119        -0.69680        -6.63476     30166.04816
      -166.44661        -1.49140        -6.02759     29193.81762
      -165.26908        -0.58961        -6.46829     29193.81762
      -165.02985        -1.48425        -5.44179     29193.81762
      -166.44661        -1.49140        -6.02759     29193.81762
      -165.26908        -0.58961        -6.46829     28505.87846
      -166.44661        -1.49140        -6.02759     28505.87846
      -166.59119        -0.69680        -6.63476     28505.87846
      -165.26908        -0.58961        -6.46829     28505.87846
      -165.02985        -1.48425        -5.44179     29747.03033
      -163.99220        -0.62533        -6.16282     29747.03033
      -163.78271        -1.47869        -4.62115     29747.03033
      -165.02985        -1.48425        -5.44179     29747.03033
      -163.99220        -0.62533        -6.16282     27764.49929
      -165.02985        -1.48425        -5.44179     27764.49929
      -165.26908        -0.58961        -6.46829     27764.49929
      -163.99220        -0.62533        -6.16282     27764.49929
      -163.78271        -1.47869        -4.62115     32611.30997
      -162.98491        -0.89361        -5.30561     32611.30997
      -162.93957        -1.47676        -3.31677     32611.30997
      -163.78271        -1.47869        -4.62115     32611.30997
      -162.98491        -0.89361        -5.30561     31034.19687
      -163.78271        -1.47869        -4.62115     31034.19687
      -163.99220        -0.62533        -6.16282     31034.19687
      -162.98491        -0.89361        -5.30561     31034.19687
      -167.89560        -0.90019        -6.81524     28693.68721
      -166.67274        -0.50852        -7.59038     28693.68721
      -166.59119        -0.69680        -6.63476     28693.68721
      -167.89560        -0.90019        -6.81524     28693.68721
      -166.67274        -0.50852        -7.59038     29653.46309
      -167.89560        -0.90019        -6.81524     29653.46309
      -167.91007        -0.63582        -7.42687     29653.46309
      -166.67274        -0.50852        -7.59038     29653.46309
      -166.59119        -0.69680        -6.63476     27772.77763
      -165.43459        -0.35789        -7.73274     27772.77763
      -165.26908        -0.58961        -6.46829     27772.77763
      -166.59119        -0.69680        -6.63476     27772.77763
      -165.43459        -0.35789        -7.73274     28337.73788
      -166.59119        -0.69680        -6.63476     28337.73788
      -166.67274        -0.50852        -7.59038     28337.73788
      -165.43459        -0.35789        -7.73274     28337.73788
      -165.26908        -0.58961        -6.46829     27173.66398
      -164.18820        -0.26367        -7.77512     27173.66398
      -163.99220        -0.62533        -6.16282     27173.66398
      -165.26908        -0.58961        -6.46829     27173.66398
      -164.18820        -0.26367        -7.77512     27554.61011
      -165.26908        -0.58961        -6.46829     27554.61011
      -165.43459        -0.35789        -7.73274     27554.61011
      -164.18820        -0.26367        -7.77512     27554.61011
      -163.99220        -0.62533        -6.16282     28274.20801
      -163.03021        -0.27900        -7.28325     28274.20801
      -162.98491        -0.89361        -5.30561     28274.20801
      -163.99220        -0.62533        -6.16282     28274.20801
      -163.03021        -0.27900        -7.28325     27671.87997
      -163.99220        -0.62533        -6.16282     27671.87997
      -164.18820        -0.26367        -7.77512     27671.87997
      -163.03021        -0.27900        -7.28325     27671.87997
      -167.91007        -0.63582        -7.42687     31372.95535
      -166.74490        -0.70787        -8.50810     31372.95535
      -166.67274        -0.50852        -7.59038     31372.95535
      -167.91007        -0.63582        -7.42687     31372.95535
      -166.74490        -0.70787        -8.50810     31008.89821
      -167.91007        -0.63582        -7.42687     31008.89821
      -167.92133        -0.89720        -8.03974     31008.89821
      -166.74490        -0.70787        -8.50810     31008.89821
      -166.67274        -0.50852        -7.59038     28985.14557
      -165.55701        -0.50889        -8.94106     28985.14557
      -165.43459        -0.35789        -7.73274     28985.14557
      -166.67274        -0.50852        -7.59038     28985.14557
      -165.55701        -0.50889        -8.94106     29737.64648
      -166.67274        -0.50852        -7.59038     29737.64648
      -166.74490        -0.70787        -8.50810     29737.64648
      -165.55701        -0.50889        -8.94106     29737.64648
      -165.43459        -0.35789        -7.73274     27848.48326
      -164.34205        -0.36129        -9.32055     27848.48326
      -164.18820        -0.26367        -7.77512     27848.48326
      -165.43459        -0.35789        -7.73274     27848.48326
      -164.34205        -0.36129        -9.32055     28261.33737
      -165.43459        -0.35789        -7.73274     28261.33737
      -165.55701        -0.50889        -8.94106     28261.33737
      -164.34205        -0.36129        -9.32055     28261.33737
      -164.18820        -0.26367        -7.77512     26929.31590
      -163.07401        -0.19410        -9.34490     26929.31590
      -163.03021        -0.27900        -7.28325     26929.31590
      -164.18820        -0.26367        -7.77512     26929.31590
      -163.07401        -0.19410        -9.34490     27253.84170
      -164.18820        -0.26367        -7.77512     27253.84170
      -164.34205        -0.36129        -9.32055     27253.84170
      -163.07401        -0.19410        -9.34490     27253.84170
      -167.92133        -0.89720        -8.03974     29646.97068
      -166.75400        -1.48598        -9.01441     29646.97068
      -166.74490        -0.70787        -8.50810     29646.97068
      -167.92133        -0.89720        -8.03974     29646.97068
      -166.75400        -1.48598        -9.01441     28376.56501
      -167.92133        -0.89720        -8.03974     28376.56501
      -167.92372        -1.49474        -8.32900     28376.56501
      -166.75400        -1.48598        -9.01441     28376.56501
      -166.74490        -0.70787        -8.50810     28421.53244
      -165.56238        -1.47717        -9.66092     28421.53244
      -165.55701        -0.50889        -8.94106     28421.53244
      -166.74490        -0.70787        -8.50810     28421.53244
      -165.56238        -1.47717        -9.66092     28500.49272
      -166.74490        -0.70787        -8.50810     28500.49272
      -166.75400        -1.48598        -9.01441     28500.49272
      -165.56238        -1.47717        -9.66092     28500.49272
      -165.55701        -0.50889        -8.94106     27295.92520
      -164.34542        -1.46834       -10.25849     27295.92520
      -164.34205        -0.36129        -9.32055     27295.92520
      -165.55701        -0.50889        -8.94106     27295.92520
      -164.34542        -1.46834       -10.25849     27220.95938
      -165.55701        -0.50889        -8.94106     27220.95938
      -165.56238        -1.47717        -9.66092     27220.95938
      -164.34542        -1.46834       -10.25849     27220.95938
      -164.34205        -0.36129        -9.32055     26807.70443
      -163.09646        -1.45948       -10.78578     26807.70443
      -163.07401        -0.19410        -9.34490     26807.70443
      -164.34205        -0.36129        -9.32055     26807.70443
      -163.09646        -1.45948       -10.78578     27049.70701
      -164.34205        -0.36129        -9.32055     27049.70701
      -164.34542        -1.46834       -10.25849     27049.70701
      -163.09646        -1.45948       -10.78578     27049.70701
       175.14268         1.60894       -16.84189     -7222.20195
       175.13104         0.60779       -17.69049     -7222.20195
       176.68323         0.61562       -17.04278     -7222.20195
       175.14268         1.60894       -16.84189     -7222.20195
       176.69053         1.59086       -16.18905     -9849.06048
       176.68323         0.61562       -17.04278     -9849.06048
       178.21556         0.62321       -16.34910     -9849.06048
       176.69053         1.59086       -16.18905     -9849.06048
       178.19039         1.59333       -15.41036    -11336.35699
       178.21556         0.62321       -16.34910    -11336.35699
       179.72567         0.63056       -15.60865    -11336.35699
       178.19039         1.59333       -15.41036    -11336.35699
       179.65642         1.58615       -14.57186    -12472.33560
       179.72567         0.63056       -15.60865    -12472.33560
       181.18768         0.63739       -14.77737    -12472.33560
       179.65642         1.58615       -14.57186    -12472.33560
       181.07146         1.58548       -13.62526    -13624.78461
       181.18768         0.63739       -14.77737    -13624.78461
       182.56786         0.64342       -13.81673    -13624.78461
       181.07146         1.58548       -13.62526    -13624.78461
       182.40935         1.53655       -12.53604    -14507.52036
       182.56786         0.64342       -13.81673    -14507.52036
       183.82150         0.64827       -12.69291    -14507.52036
       182.40935         1.53655       -12.53604    -14507.52036
       183.64560         1.41029       -11.26975    -14843.49060
       183.82150         0.64827       -12.69291    -14843.49060
       184.81988         0.65104       -11.34800    -14843.49060
       183.64560         1.41029       -11.26975    -14843.49060
       184.74316         1.19816        -9.89098    -14191.67112
       184.81988         0.65104       -11.34800    -14191.67112
       185.49427         0.65135        -9.80036    -14191.67112
       184.74316         1.19816        -9.89098    -14191.67112
      -162.90067         0.20992        -0.96883     36834.93498
      -164.33390        -1.48968        -1.48975     36834.93498
      -162.93957        -1.47676        -3.31677     36834.93498
      -162.90067         0.20992        -0.96883     36834.93498
      -164.89512         1.15148        -0.28851     38651.83587
      -166.03166        -1.50321        -0.16234     38651.83587
      -164.33390        -1.48968        -1.48975     38651.83587
      -164.89512         1.15148        -0.28851     38651.83587
      -166.99439         1.53364         0.23091     37921.54229
      -168.16721        -1.51762         0.43598     37921.54229
      -166.03166        -1.50321        -0.16234     37921.54229
      -166.99439         1.53364         0.23091     37921.54229
      -169.30172         1.81738         0.73898     37444.07101
      -170.36524        -1.53199         0.86468     37444.07101
      -168.16721        -1.51762         0.43598     37444.07101
      -169.30172         1.81738         0.73898     37444.07101
      -171.76061         2.00693         1.23491     37317.84321
      -172.52544        -1.54620         1.32366     37317.84321
      -170.36524        -1.53199         0.86468     37317.84321
      -171.76061         2.00693         1.23491     37317.84321
      -174.15724         2.08817         1.76435     37175.93451
      -174.69979        -1.56047         1.76778     37175.93451
      -172.52544        -1.54620         1.32366     37175.93451
      -174.15724         2.08817         1.76435     37175.93451
      -162.93533        11.75250         0.76760     37779.43704
      -159.95958        13.27175         0.64030     37779.43704
      -159.96200        15.80137         1.49594     37779.43704
      -162.93610        14.56009         1.55574     37779.43704
      -159.95958        13.27175         0.64030     36182.52410
      -156.97678        14.45691         0.43711     36182.52410
      -156.98030        17.00658         1.43590     36182.52410
      -159.96200        15.80137         1.49594     36182.52410
      -156.97678        14.45691         0.43711     33511.51833
      -153.98074        15.59352         0.23220     33511.51833
      -153.98298        18.14938         1.37540     33511.51833
      -156.98030        17.00658         1.43590     33511.51833
      -153.98074        15.59352         0.23220     30535.02625
      -150.96498        16.65987         0.02409     30535.02625
      -150.96204        19.20338         1.31420     30535.02625
      -153.98298        18.14938         1.37540     30535.02625
      -150.96498        16.65987         0.02409     27412.25227
      -147.92304        17.63424        -0.18869     27412.25227
      -147.90947        20.14224         1.25209     27412.25227
      -150.96204        19.20338         1.31420     27412.25227
      -147.92304        17.63424        -0.18869     24321.16862
      -144.84855        18.49535        -0.40758     24321.16862
      -144.81743        20.94003         1.18884     24321.16862
      -147.90947        20.14224         1.25209     24321.16862
      -144.84855        18.49535        -0.40758     21743.89170
      -141.74052        19.23782        -0.63217     21743.89170
      -141.68512        21.58866         1.12442     21743.89170
      -144.81743        20.94003         1.18884     21743.89170
      -141.74052        19.23782        -0.63217     19712.36193
      -138.60497        19.87702        -0.85965     19712.36193
      -138.52079        22.10312         1.05903     19712.36193
      -141.68512        21.58866         1.12442     19712.36193
      -138.60497        19.87702        -0.85965     17344.67658
      -135.44838        20.42974        -1.08707     17344.67658
      -135.33339        22.49992         0.99290     17344.67658
      -138.52079        22.10312         1.05903     17344.67658
      -135.44838        20.42974        -1.08707     15551.58144
      -132.27722        20.91276        -1.31146     15551.58144
      -132.13174        22.79557         0.92624     15551.58144
      -135.33339        22.49992         0.99290     15551.58144
      -132.27722        20.91276        -1.31146     16741.69439
      -129.09795        21.34286        -1.52986     16741.69439
      -128.92476        23.00663         0.85929     16741.69439
      -132.13174        22.79557         0.92624     16741.69439
      -129.09795        21.34286        -1.52986     21367.65886
      -125.91579        21.73333        -1.73944     21367.65886
      -125.71936        23.14909         0.79223     21367.65886
      -128.92476        23.00663         0.85929     21367.65886
      -125.91579        21.73333        -1.73944     26861.09571
      -122.73130        22.08494        -1.93792     26861.09571
      -122.51608        23.23748         0.72509     26861.09571
      -125.71936        23.14909         0.79223     26861.09571
      -122.73130        22.08494        -1.93792     31088.86455
      -119.54398        22.39559        -2.12316     31088.86455
      -119.31417        23.28598         0.65789     31088.86455
      -122.51608        23.23748         0.72509     31088.86455
      -119.54398        22.39559        -2.12316     34667.73220
      -116.35340        22.66319        -2.29296     34667.73220
      -116.11294        23.30877         0.59065     34667.73220
      -119.31417        23.28598         0.65789     34667.73220
      -116.35340        22.66319        -2.29296     40760.60315
      -113.15902        22.88566        -2.44518     40760.60315
      -112.91164        23.32003         0.52339     40760.60315
      -116.11294        23.30877         0.59065     40760.60315
      -113.15902        22.88566        -2.44518     48578.55306
      -109.96048        23.06151        -2.57809     48578.55306
      -109.70963        23.33266         0.45611     48578.55306
      -112.91164        23.32003         0.52339     48578.55306
      -109.96048        23.06151        -2.57809     52640.12465
      -106.75828        23.19491        -2.69393     52640.12465
      -106.50684        23.34978         0.38883     52640.12465
      -109.70963        23.33266         0.45611     52640.12465
      -106.75828        23.19491        -2.69393     51361.70923
      -103.55335        23.29301        -2.79709     51361.70923
      -103.30353        23.37009         0.32154     51361.70923
      -106.50684        23.34978         0.38883     51361.70923
      -103.55335        23.29301        -2.79709     47270.21949
      -100.34668        23.36303        -2.89197     47270.21949
      -100.09989        23.39222         0.25425     47270.21949
      -103.30353        23.37009         0.32154     47270.21949
      -100.34668        23.36303        -2.89197     44285.80433
       -97.13921        23.41216        -2.98296     44285.80433
       -96.89620        23.41484         0.18695     44285.80433
      -100.09989        23.39222         0.25425     44285.80433
       -97.13921        23.41216        -2.98296     41869.18417
       -93.93190        23.44749        -3.07439     41869.18417
       -93.69262        23.43667         0.11966     41869.18417
       -96.89620        23.41484         0.18695     41869.18417
       -93.93190        23.44749        -3.07439     37389.53006
       -90.72516        23.47398        -3.16812     37389.53006
       -90.48926        23.45721         0.05237     37389.53006
       -93.69262        23.43667         0.11966     37389.53006
       -90.72516        23.47398        -3.16812     30876.61908
       -87.51889        23.49408        -3.26332     30876.61908
       -87.28607        23.47680        -0.01491     30876.61908
       -90.48926        23.45721         0.05237     30876.61908
       -87.51889        23.49408        -3.26332     23418.60667
       -84.31286        23.51016        -3.35903     23418.60667
       -84.08297        23.49580        -0.08220     23418.60667
       -87.28607        23.47680        -0.01491     23418.60667
       -84.31286        23.51016        -3.35903     15587.34993
       -81.10692        23.52458        -3.45427     15587.34993
       -80.87991        23.51458        -0.14949     15587.34993
       -84.08297        23.49580        -0.08220     15587.34993
       -81.10692        23.52458        -3.45427      7416.03309
       -77.90090        23.53967        -3.54807      7416.03309
       -77.67684        23.53347        -0.21677      7416.03309
       -80.87991        23.51458        -0.14949      7416.03309
       -77.90090        23.53967        -3.54807      1016.88975
       -74.69472        23.55699        -3.63988      1016.88975
       -74.47367        23.55270        -0.28406      1016.88975
       -77.67684        23.53347        -0.21677      1016.88975
       -74.69472        23.55699        -3.63988     -3660.58619
       -71.48830        23.57617        -3.73012     -3660.58619
       -71.27058        23.57222        -0.35135     -3660.58619
       -74.47367        23.55270        -0.28406     -3660.58619
       -71.48830        23.57617        -3.73012     -9257.42665
       -68.28176        23.59658        -3.81930     -9257.42665
       -68.06728        23.59193        -0.41864     -9257.42665
       -71.27058        23.57222        -0.35135     -9257.42665
       -68.28176        23.59658        -3.81930    -16583.03520
       -65.07521        23.61758        -3.90797    -16583.03520
       -64.86408        23.61172        -0.48592    -16583.03520
       -68.06728        23.59193        -0.41864    -16583.03520
       -65.07521        23.61758        -3.90797    -24149.75468
       -61.86877        23.63857        -3.99665    -24149.75468
       -61.66088        23.63150        -0.55321    -24149.75468
       -64.86408        23.61172        -0.48592    -24149.75468
       -61.86877        23.63857        -3.99665    -28769.97574
       -58.66223        23.65900        -4.08580    -28769.97574
       -58.45758        23.65121        -0.62050    -28769.97574
       -61.66088        23.63150        -0.55321    -28769.97574
       -58.66223        23.65900        -4.08580    -30317.81620
       -55.45579        23.67889        -4.17518    -30317.81620
       -55.25447        23.67082        -0.68779    -30317.81620
       -58.45758        23.65121        -0.62050    -30317.81620
       -55.45579        23.67889        -4.17518    -32181.11183
       -52.24936        23.69841        -4.26446    -32181.11183
       -52.05127        23.69038        -0.75507    -32181.11183
       -55.25447        23.67082        -0.68779    -32181.11183
       -52.24936        23.69841        -4.26446    -34767.63674
       -49.04290        23.71773        -4.35323    -34767.63674
       -48.84808        23.70991        -0.82236    -34767.63674
       -52.05127        23.69038        -0.75507    -34767.63674
       -49.04290        23.71773        -4.35323    -36550.42747
       -45.83643        23.73703        -4.44111    -36550.42747
       -45.64488        23.72944        -0.88965    -36550.42747
       -48.84808        23.70991        -0.82236    -36550.42747
       -45.83643        23.73703        -4.44111    -35853.10974
       -42.62994        23.75647        -4.52773    -35853.10974
       -42.44168        23.74899        -0.95694    -35853.10974
       -45.64488        23.72944        -0.88965    -35853.10974
       -42.62994        23.75647        -4.52773    -33206.16493
       -39.42340        23.77608        -4.61277    -33206.16493
       -39.23847        23.76855        -1.02422    -33206.16493
       -42.44168        23.74899        -0.95694    -33206.16493
       -39.42340        23.77608        -4.61277    -31801.51311
       -36.21673        23.79578        -4.69597    -31801.51311
       -36.03527        23.78814        -1.09151    -31801.51311
       -39.23847        23.76855        -1.02422    -31801.51311
       -36.21673        23.79578        -4.69597    -32073.58870
       -33.01013        23.81550        -4.77703    -32073.58870
       -32.83207        23.80774        -1.15880    -32073.58870
       -36.03527        23.78814        -1.09151    -32073.58870
       -33.01013        23.81550        -4.77703    -32084.17717
       -29.80337        23.83517        -4.85569    -32084.17717
       -29.62887        23.82733        -1.22609    -32084.17717
       -32.83207        23.80774        -1.15880    -32084.17717
       -29.80337        23.83517        -4.85569    -30553.72991
       -26.59655        23.85472        -4.93169    -30553.72991
       -26.42567        23.84692        -1.29338    -30553.72991
       -29.62887        23.82733        -1.22609    -30553.72991
       -26.59655        23.85472        -4.93169    -28129.81689
       -23.38978        23.87415        -5.00509    -28129.81689
       -23.22247        23.86652        -1.36066    -28129.81689
       -26.42567        23.84692        -1.29338    -28129.81689
       -23.38978        23.87415        -5.00509    -27045.89369
       -20.18286        23.89355        -5.07644    -27045.89369
       -20.01928        23.88610        -1.42795    -27045.89369
       -23.22247        23.86652        -1.36066    -27045.89369
       -20.18286        23.89355        -5.07644    -27408.06767
       -16.97591        23.91308        -5.14633    -27408.06767
       -16.81608        23.90568        -1.49524    -27408.06767
       -20.01928        23.88610        -1.42795    -27408.06767
       -16.97591        23.91308        -5.14633    -26507.49043
       -13.76904        23.93282        -5.21536    -26507.49043
       -13.61288        23.92525        -1.56253    -26507.49043
       -16.81608        23.90568        -1.49524    -26507.49043
       -13.76904        23.93282        -5.21536    -23604.97304
       -10.56207        23.95289        -5.28411    -23604.97304
       -10.40968        23.94484        -1.62981    -23604.97304
       -13.61288        23.92525        -1.56253    -23604.97304
       -10.56207        23.95289        -5.28411    -19911.85158
        -7.35510        23.97333        -5.35292    -19911.85158
        -7.20648        23.96442        -1.69710    -19911.85158
       -10.40968        23.94484        -1.62981    -19911.85158
        -7.35510        23.97333        -5.35292    -17502.18437
        -4.14813        23.99383        -5.42148    -17502.18437
        -4.00328        23.98400        -1.76439    -17502.18437
        -7.20648        23.96442        -1.69710    -17502.18437
        -4.14813        23.99383        -5.42148    -16914.03903
        -0.94114        24.01407        -5.48931    -16914.03903
        -0.80007        24.00358        -1.83168    -16914.03903
        -4.00328        23.98400        -1.76439    -16914.03903
        -0.94114        24.01407        -5.48931    -15615.22945
         2.26576        24.03368        -5.55595    -15615.22945
         2.40313        24.02317        -1.89896    -15615.22945
        -0.80007        24.00358        -1.83168    -15615.22945
         2.26576        24.03368        -5.55595    -13659.10730
         5.47282        24.05233        -5.62092    -13659.10730
         5.60633        24.04275        -1.96625    -13659.10730
         2.40313        24.02317        -1.89896    -13659.10730
         5.47282        24.05233        -5.62092    -13097.92774
         8.67982        24.06982        -5.68378    -13097.92774
         8.80942        24.06233        -2.03354    -13097.92774
         5.60633        24.04275        -1.96625    -13097.92774
         8.67982        24.06982        -5.68378    -16029.60737
        11.88699        24.08685        -5.74419    -16029.60737
        12.01262        24.08192        -2.10083    -16029.60737
         8.80942        24.06233        -2.03354    -16029.60737
        11.88699        24.08685        -5.74419    -22338.11247
        15.09420        24.10453        -5.80189    -22338.11247
        15.21583        24.10150        -2.16811    -22338.11247
        12.01262        24.08192        -2.10083    -22338.11247
        15.09420        24.10453        -5.80189    -27616.50995
        18.30138        24.12398        -5.85658    -27616.50995
        18.41903        24.12108        -2.23540    -27616.50995
        15.21583        24.10150        -2.16811    -27616.50995
        18.30138        24.12398        -5.85658    -31674.82635
        21.50870        24.14630        -5.90800    -31674.82635
        21.62223        24.14066        -2.30269    -31674.82635
        18.41903        24.12108        -2.23540    -31674.82635
        21.50870        24.14630        -5.90800    -36444.52789
        24.71596        24.17244        -5.95587    -36444.52789
        24.82543        24.16025        -2.36998    -36444.52789
        21.62223        24.14066        -2.30269    -36444.52789
        24.71596        24.17244        -5.95587    -43205.27045
        27.92338        24.20083        -6.00039    -43205.27045
        28.02863        24.17983        -2.43726    -43205.27045
        24.82543        24.16025        -2.36998    -43205.27045
        27.92338        24.20083        -6.00039    -50967.78921
        31.13088        24.22759        -6.04212    -50967.78921
        31.23183        24.19941        -2.50455    -50967.78921
        28.02863        24.17983        -2.43726    -50967.78921
        31.13088        24.22759        -6.04212    -55861.88237
        34.33826        24.24878        -6.08163    -55861.88237
        34.43502        24.21899        -2.57184    -55861.88237
        31.23183        24.19941        -2.50455    -55861.88237
        34.33826        24.24878        -6.08163    -57814.69621
        37.54573        24.26043        -6.11951    -57814.69621
        37.63822        24.23858        -2.63913    -57814.69621
        34.43502        24.21899        -2.57184    -57814.69621
        37.54573        24.26043        -6.11951    -58468.64766
        40.75309        24.25866        -6.15634    -58468.64766
        40.84142        24.25815        -2.70641    -58468.64766
        37.63822        24.23858        -2.63913    -58468.64766
        40.75309        24.25866        -6.15634    -58208.52696
        43.96057        24.24189        -6.19249    -58208.52696
        44.04462        24.27773        -2.77370    -58208.52696
        40.84142        24.25815        -2.70641    -58208.52696
        43.96057        24.24189        -6.19249    -56374.49634
        47.16794        24.21289        -6.22804    -56374.49634
        47.24782        24.29733        -2.84099    -56374.49634
        44.04462        24.27773        -2.77370    -56374.49634
        47.16794        24.21289        -6.22804    -52190.60026
        50.37528        24.17487        -6.26300    -52190.60026
        50.45102        24.31691        -2.90828    -52190.60026
        47.24782        24.29733        -2.84099    -52190.60026
        50.37528        24.17487        -6.26300    -45450.57586
        53.58266        24.13106        -6.29739    -45450.57586
        53.65412        24.33649        -2.97556    -45450.57586
        50.45102        24.31691        -2.90828    -45450.57586
        53.58266        24.13106        -6.29739    -37031.88621
        56.79007        24.08467        -6.33124    -37031.88621
        56.85732        24.35607        -3.04285    -37031.88621