 VARIABLES= "X","Y","Z","yita"  
ZONE N=                                        3000 E=                              750 F=FEPOINT, ET=QUADRILATERAL
    500.0000000000      0.0000000000     -0.4562749863     -0.4562749863
    500.0000000000     26.6666698456     -0.4562749863     -0.4562749863
    479.7061157227     26.6666698456     -0.4562749863     -0.4562749863
    479.6851196289      0.0000000000     -0.4562749863     -0.4562749863
    500.0000000000     26.6666698456     -0.4562749863     -0.4562749863
    500.0000000000     53.3333282471     -0.4561725259     -0.4561725259
    479.7271118164     53.3333282471     -0.4561725259     -0.4561725259
    479.7061157227     26.6666698456     -0.4562749863     -0.4562749863
    500.0000000000     53.3333282471     -0.4561725259     -0.4561725259
    500.0000000000     80.0000000000     -0.4560999870     -0.4560999870
    479.7481079102     80.0000000000     -0.4560999870     -0.4560999870
    479.7271118164     53.3333282471     -0.4561725259     -0.4561725259
    500.0000000000     80.0000000000     -0.4560999870     -0.4560999870
    500.0000000000    106.6666717529     -0.4560375214     -0.4560375214
    479.7691040039    106.6666717529     -0.4560375214     -0.4560375214
    479.7481079102     80.0000000000     -0.4560999870     -0.4560999870
    500.0000000000    106.6666717529     -0.4560375214     -0.4560375214
    500.0000000000    133.3333282471     -0.4559800029     -0.4559800029
    479.7900695801    133.3333282471     -0.4559800029     -0.4559800029
    479.7691040039    106.6666717529     -0.4560375214     -0.4560375214
    500.0000000000    133.3333282471     -0.4559800029     -0.4559800029
    500.0000000000    160.0000000000     -0.4559374750     -0.4559374750
    479.8110656738    160.0000000000     -0.4559374750     -0.4559374750
    479.7900695801    133.3333282471     -0.4559800029     -0.4559800029
    500.0000000000    160.0000000000     -0.4559374750     -0.4559374750
    500.0000000000    186.6666717529     -0.4558925033     -0.4558925033
    479.8320617676    186.6666717529     -0.4558925033     -0.4558925033
    479.8110656738    160.0000000000     -0.4559374750     -0.4559374750
    500.0000000000    186.6666717529     -0.4558925033     -0.4558925033
    500.0000000000    213.3333282471     -0.4558350146     -0.4558350146
    479.8530578613    213.3333282471     -0.4558350146     -0.4558350146
    479.8320617676    186.6666717529     -0.4558925033     -0.4558925033
    500.0000000000    213.3333282471     -0.4558350146     -0.4558350146
    500.0000000000    240.0000000000     -0.4557799995     -0.4557799995
    479.8740539551    240.0000000000     -0.4557799995     -0.4557799995
    479.8530578613    213.3333282471     -0.4558350146     -0.4558350146
    500.0000000000    240.0000000000     -0.4557799995     -0.4557799995
    500.0000000000    266.6666564941     -0.4557150006     -0.4557150006
    479.8950500488    266.6666564941     -0.4557150006     -0.4557150006
    479.8740539551    240.0000000000     -0.4557799995     -0.4557799995
    500.0000000000    266.6666564941     -0.4557150006     -0.4557150006
    500.0000000000    293.3333435059     -0.4556300342     -0.4556300342
    479.9160156250    293.3333435059     -0.4556300342     -0.4556300342
    479.8950500488    266.6666564941     -0.4557150006     -0.4557150006
    500.0000000000    293.3333435059     -0.4556300342     -0.4556300342
    500.0000000000    320.0000000000     -0.4555475116     -0.4555475116
    479.9370422363    320.0000000000     -0.4555475116     -0.4555475116
    479.9160156250    293.3333435059     -0.4556300342     -0.4556300342
    500.0000000000    320.0000000000     -0.4555475116     -0.4555475116
    500.0000000000    346.6666564941     -0.4554575086     -0.4554575086
    479.9580078125    346.6666564941     -0.4554575086     -0.4554575086
    479.9370422363    320.0000000000     -0.4555475116     -0.4555475116
    500.0000000000    346.6666564941     -0.4554575086     -0.4554575086
    500.0000000000    373.3333435059     -0.4553499818     -0.4553499818
    479.9790039062    373.3333435059     -0.4553499818     -0.4553499818
    479.9580078125    346.6666564941     -0.4554575086     -0.4554575086
    500.0000000000    373.3333435059     -0.4553499818     -0.4553499818
    500.0000000000    400.0000000000     -0.4553499818     -0.4553499818
    480.0000000000    400.0000000000     -0.4553499818     -0.4553499818
    479.9790039062    373.3333435059     -0.4553499818     -0.4553499818
    479.6851196289      0.0000000000     -0.4562749863     -0.4562749863
    479.7061157227     26.6666698456     -0.4562749863     -0.4562749863
    459.4122314453     26.6666698456     -0.5759899616     -0.5759899616
    459.3702392578      0.0000000000     -0.5759899616     -0.5759899616
    479.7061157227     26.6666698456     -0.4562749863     -0.4562749863
    479.7271118164     53.3333282471     -0.4561725259     -0.4561725259
    459.4542236328     53.3333282471     -0.5758800507     -0.5758800507
    459.4122314453     26.6666698456     -0.5759899616     -0.5759899616
    479.7271118164     53.3333282471     -0.4561725259     -0.4561725259
    479.7481079102     80.0000000000     -0.4560999870     -0.4560999870
    459.4961853027     80.0000000000     -0.5758025050     -0.5758025050
    459.4542236328     53.3333282471     -0.5758800507     -0.5758800507
    479.7481079102     80.0000000000     -0.4560999870     -0.4560999870
    479.7691040039    106.6666717529     -0.4560375214     -0.4560375214
    459.5381774902    106.6666717529     -0.5757449865     -0.5757449865
    459.4961853027     80.0000000000     -0.5758025050     -0.5758025050
    479.7691040039    106.6666717529     -0.4560375214     -0.4560375214
    479.7900695801    133.3333282471     -0.4559800029     -0.4559800029
    459.5801696777    133.3333282471     -0.5757025480     -0.5757025480
    459.5381774902    106.6666717529     -0.5757449865     -0.5757449865
    479.7900695801    133.3333282471     -0.4559800029     -0.4559800029
    479.8110656738    160.0000000000     -0.4559374750     -0.4559374750
    459.6221618652    160.0000000000     -0.5756650567     -0.5756650567
    459.5801696777    133.3333282471     -0.5757025480     -0.5757025480
    479.8110656738    160.0000000000     -0.4559374750     -0.4559374750
    479.8320617676    186.6666717529     -0.4558925033     -0.4558925033
    459.6641235352    186.6666717529     -0.5756250024     -0.5756250024
    459.6221618652    160.0000000000     -0.5756650567     -0.5756650567
    479.8320617676    186.6666717529     -0.4558925033     -0.4558925033
    479.8530578613    213.3333282471     -0.4558350146     -0.4558350146
    459.7061157227    213.3333282471     -0.5755774975     -0.5755774975
    459.6641235352    186.6666717529     -0.5756250024     -0.5756250024
    479.8530578613    213.3333282471     -0.4558350146     -0.4558350146
    479.8740539551    240.0000000000     -0.4557799995     -0.4557799995
    459.7481079102    240.0000000000     -0.5755174756     -0.5755174756
    459.7061157227    213.3333282471     -0.5755774975     -0.5755774975
    479.8740539551    240.0000000000     -0.4557799995     -0.4557799995
    479.8950500488    266.6666564941     -0.4557150006     -0.4557150006
    459.7900695801    266.6666564941     -0.5754449964     -0.5754449964
    459.7481079102    240.0000000000     -0.5755174756     -0.5755174756
    479.8950500488    266.6666564941     -0.4557150006     -0.4557150006
    479.9160156250    293.3333435059     -0.4556300342     -0.4556300342
    459.8320617676    293.3333435059     -0.5753574967     -0.5753574967
    459.7900695801    266.6666564941     -0.5754449964     -0.5754449964
    479.9160156250    293.3333435059     -0.4556300342     -0.4556300342
    479.9370422363    320.0000000000     -0.4555475116     -0.4555475116
    459.8740539551    320.0000000000     -0.5752575397     -0.5752575397
    459.8320617676    293.3333435059     -0.5753574967     -0.5753574967
    479.9370422363    320.0000000000     -0.4555475116     -0.4555475116
    479.9580078125    346.6666564941     -0.4554575086     -0.4554575086
    459.9160156250    346.6666564941     -0.5751450062     -0.5751450062
    459.8740539551    320.0000000000     -0.5752575397     -0.5752575397
    479.9580078125    346.6666564941     -0.4554575086     -0.4554575086
    479.9790039062    373.3333435059     -0.4553499818     -0.4553499818
    459.9580078125    373.3333435059     -0.5750200152     -0.5750200152
    459.9160156250    346.6666564941     -0.5751450062     -0.5751450062
    479.9790039062    373.3333435059     -0.4553499818     -0.4553499818
    480.0000000000    400.0000000000     -0.4553499818     -0.4553499818
    460.0000000000    400.0000000000     -0.5750200152     -0.5750200152
    459.9580078125    373.3333435059     -0.5750200152     -0.5750200152
    459.3702392578      0.0000000000     -0.5759899616     -0.5759899616
    459.4122314453     26.6666698456     -0.5759899616     -0.5759899616
    439.1183471680     26.6666698456     -0.6327500343     -0.6327500343
    439.0553588867      0.0000000000     -0.6327500343     -0.6327500343
    459.4122314453     26.6666698456     -0.5759899616     -0.5759899616
    459.4542236328     53.3333282471     -0.5758800507     -0.5758800507
    439.1813049316     53.3333282471     -0.6327750087     -0.6327750087
    439.1183471680     26.6666698456     -0.6327500343     -0.6327500343
    459.4542236328     53.3333282471     -0.5758800507     -0.5758800507
    459.4961853027     80.0000000000     -0.5758025050     -0.5758025050
    439.2442932129     80.0000000000     -0.6328425407     -0.6328425407
    439.1813049316     53.3333282471     -0.6327750087     -0.6327750087
    459.4961853027     80.0000000000     -0.5758025050     -0.5758025050
    459.5381774902    106.6666717529     -0.5757449865     -0.5757449865
    439.3072814941    106.6666717529     -0.6329374909     -0.6329374909
    439.2442932129     80.0000000000     -0.6328425407     -0.6328425407
    459.5381774902    106.6666717529     -0.5757449865     -0.5757449865
    459.5801696777    133.3333282471     -0.5757025480     -0.5757025480
    439.3702392578    133.3333282471     -0.6330450177     -0.6330450177
    439.3072814941    106.6666717529     -0.6329374909     -0.6329374909
    459.5801696777    133.3333282471     -0.5757025480     -0.5757025480
    459.6221618652    160.0000000000     -0.5756650567     -0.5756650567
    439.4332275391    160.0000000000     -0.6331549883     -0.6331549883
    439.3702392578    133.3333282471     -0.6330450177     -0.6330450177
    459.6221618652    160.0000000000     -0.5756650567     -0.5756650567
    459.6641235352    186.6666717529     -0.5756250024     -0.5756250024
    439.4961853027    186.6666717529     -0.6332600117     -0.6332600117
    439.4332275391    160.0000000000     -0.6331549883     -0.6331549883
    459.6641235352    186.6666717529     -0.5756250024     -0.5756250024
    459.7061157227    213.3333282471     -0.5755774975     -0.5755774975
    439.5591735840    213.3333282471     -0.6333500147     -0.6333500147
    439.4961853027    186.6666717529     -0.6332600117     -0.6332600117
    459.7061157227    213.3333282471     -0.5755774975     -0.5755774975
    459.7481079102    240.0000000000     -0.5755174756     -0.5755174756
    439.6221618652    240.0000000000     -0.6334249973     -0.6334249973
    439.5591735840    213.3333282471     -0.6333500147     -0.6333500147
    459.7481079102    240.0000000000     -0.5755174756     -0.5755174756
    459.7900695801    266.6666564941     -0.5754449964     -0.5754449964
    439.6851196289    266.6666564941     -0.6334825158     -0.6334825158
    439.6221618652    240.0000000000     -0.6334249973     -0.6334249973
    459.7900695801    266.6666564941     -0.5754449964     -0.5754449964
    459.8320617676    293.3333435059     -0.5753574967     -0.5753574967
    439.7481079102    293.3333435059     -0.6335200071     -0.6335200071
    439.6851196289    266.6666564941     -0.6334825158     -0.6334825158
    459.8320617676    293.3333435059     -0.5753574967     -0.5753574967
    459.8740539551    320.0000000000     -0.5752575397     -0.5752575397
    439.8110656738    320.0000000000     -0.6335425377     -0.6335425377
    439.7481079102    293.3333435059     -0.6335200071     -0.6335200071
    459.8740539551    320.0000000000     -0.5752575397     -0.5752575397
    459.9160156250    346.6666564941     -0.5751450062     -0.5751450062
    439.8740539551    346.6666564941     -0.6335500479     -0.6335500479
    439.8110656738    320.0000000000     -0.6335425377     -0.6335425377
    459.9160156250    346.6666564941     -0.5751450062     -0.5751450062
    459.9580078125    373.3333435059     -0.5750200152     -0.5750200152
    439.9370422363    373.3333435059     -0.6335425377     -0.6335425377
    439.8740539551    346.6666564941     -0.6335500479     -0.6335500479
    459.9580078125    373.3333435059     -0.5750200152     -0.5750200152
    460.0000000000    400.0000000000     -0.5750200152     -0.5750200152
    440.0000000000    400.0000000000     -0.6335425377     -0.6335425377
    439.9370422363    373.3333435059     -0.6335425377     -0.6335425377
    439.0553588867      0.0000000000     -0.6327500343     -0.6327500343
    439.1183471680     26.6666698456     -0.6327500343     -0.6327500343
    418.8244628906     26.6666698456     -0.6201900244     -0.6201900244
    418.7405090332      0.0000000000     -0.6201900244     -0.6201900244
    439.1183471680     26.6666698456     -0.6327500343     -0.6327500343
    439.1813049316     53.3333282471     -0.6327750087     -0.6327750087
    418.9084167480     53.3333282471     -0.6204999685     -0.6204999685
    418.8244628906     26.6666698456     -0.6201900244     -0.6201900244
    439.1813049316     53.3333282471     -0.6327750087     -0.6327750087
    439.2442932129     80.0000000000     -0.6328425407     -0.6328425407
    418.9924011230     80.0000000000     -0.6208624840     -0.6208624840
    418.9084167480     53.3333282471     -0.6204999685     -0.6204999685
    439.2442932129     80.0000000000     -0.6328425407     -0.6328425407
    439.3072814941    106.6666717529     -0.6329374909     -0.6329374909
    419.0763549805    106.6666717529     -0.6212599874     -0.6212599874
    418.9924011230     80.0000000000     -0.6208624840     -0.6208624840
    439.3072814941    106.6666717529     -0.6329374909     -0.6329374909
    439.3702392578    133.3333282471     -0.6330450177     -0.6330450177
    419.1603393555    133.3333282471     -0.6216700077     -0.6216700077
    419.0763549805    106.6666717529     -0.6212599874     -0.6212599874
    439.3702392578    133.3333282471     -0.6330450177     -0.6330450177
    439.4332275391    160.0000000000     -0.6331549883     -0.6331549883
    419.2442932129    160.0000000000     -0.6220750213     -0.6220750213
    419.1603393555    133.3333282471     -0.6216700077     -0.6216700077
    439.4332275391    160.0000000000     -0.6331549883     -0.6331549883
    439.4961853027    186.6666717529     -0.6332600117     -0.6332600117
    419.3282775879    186.6666717529     -0.6224675179     -0.6224675179
    419.2442932129    160.0000000000     -0.6220750213     -0.6220750213
    439.4961853027    186.6666717529     -0.6332600117     -0.6332600117
    439.5591735840    213.3333282471     -0.6333500147     -0.6333500147
    419.4122314453    213.3333282471     -0.6228449941     -0.6228449941
    419.3282775879    186.6666717529     -0.6224675179     -0.6224675179
    439.5591735840    213.3333282471     -0.6333500147     -0.6333500147
    439.6221618652    240.0000000000     -0.6334249973     -0.6334249973
    419.4961853027    240.0000000000     -0.6232025027     -0.6232025027
    419.4122314453    213.3333282471     -0.6228449941     -0.6228449941
    439.6221618652    240.0000000000     -0.6334249973     -0.6334249973
    439.6851196289    266.6666564941     -0.6334825158     -0.6334825158
    419.5801696777    266.6666564941     -0.6235324740     -0.6235324740
    419.4961853027    240.0000000000     -0.6232025027     -0.6232025027
    439.6851196289    266.6666564941     -0.6334825158     -0.6334825158
    439.7481079102    293.3333435059     -0.6335200071     -0.6335200071
    419.6641235352    293.3333435059     -0.6238399744     -0.6238399744
    419.5801696777    266.6666564941     -0.6235324740     -0.6235324740
    439.7481079102    293.3333435059     -0.6335200071     -0.6335200071
    439.8110656738    320.0000000000     -0.6335425377     -0.6335425377
    419.7481079102    320.0000000000     -0.6241300106     -0.6241300106
    419.6641235352    293.3333435059     -0.6238399744     -0.6238399744
    439.8110656738    320.0000000000     -0.6335425377     -0.6335425377
    439.8740539551    346.6666564941     -0.6335500479     -0.6335500479
    419.8320617676    346.6666564941     -0.6244049668     -0.6244049668
    419.7481079102    320.0000000000     -0.6241300106     -0.6241300106
    439.8740539551    346.6666564941     -0.6335500479     -0.6335500479
    439.9370422363    373.3333435059     -0.6335425377     -0.6335425377
    419.9160156250    373.3333435059     -0.6246650219     -0.6246650219
    419.8320617676    346.6666564941     -0.6244049668     -0.6244049668
    439.9370422363    373.3333435059     -0.6335425377     -0.6335425377
    440.0000000000    400.0000000000     -0.6335425377     -0.6335425377
    420.0000000000    400.0000000000     -0.6246650219     -0.6246650219
    419.9160156250    373.3333435059     -0.6246650219     -0.6246650219
    418.7405090332      0.0000000000     -0.6201900244     -0.6201900244
    418.8244628906     26.6666698456     -0.6201900244     -0.6201900244
    398.5305786133     26.6666698456     -0.5396050215     -0.5396050215
    398.4256286621      0.0000000000     -0.5396050215     -0.5396050215
    418.8244628906     26.6666698456     -0.6201900244     -0.6201900244
    418.9084167480     53.3333282471     -0.6204999685     -0.6204999685
    398.6355285645     53.3333282471     -0.5403199792     -0.5403199792
    398.5305786133     26.6666698456     -0.5396050215     -0.5396050215
    418.9084167480     53.3333282471     -0.6204999685     -0.6204999685
    418.9924011230     80.0000000000     -0.6208624840     -0.6208624840
    398.7405090332     80.0000000000     -0.5410950184     -0.5410950184
    398.6355285645     53.3333282471     -0.5403199792     -0.5403199792
    418.9924011230     80.0000000000     -0.6208624840     -0.6208624840
    419.0763549805    106.6666717529     -0.6212599874     -0.6212599874
    398.8454589844    106.6666717529     -0.5419099927     -0.5419099927
    398.7405090332     80.0000000000     -0.5410950184     -0.5410950184
    419.0763549805    106.6666717529     -0.6212599874     -0.6212599874
    419.1603393555    133.3333282471     -0.6216700077     -0.6216700077
    398.9504089355    133.3333282471     -0.5427424908     -0.5427424908
    398.8454589844    106.6666717529     -0.5419099927     -0.5419099927
    419.1603393555    133.3333282471     -0.6216700077     -0.6216700077
    419.2442932129    160.0000000000     -0.6220750213     -0.6220750213
    399.0553588867    160.0000000000     -0.5435650349     -0.5435650349
    398.9504089355    133.3333282471     -0.5427424908     -0.5427424908
    419.2442932129    160.0000000000     -0.6220750213     -0.6220750213
    419.3282775879    186.6666717529     -0.6224675179     -0.6224675179
    399.1603393555    186.6666717529     -0.5443674922     -0.5443674922
    399.0553588867    160.0000000000     -0.5435650349     -0.5435650349
    419.3282775879    186.6666717529     -0.6224675179     -0.6224675179
    419.4122314453    213.3333282471     -0.6228449941     -0.6228449941
    399.2652893066    213.3333282471     -0.5451524854     -0.5451524854
    399.1603393555    186.6666717529     -0.5443674922     -0.5443674922
    419.4122314453    213.3333282471     -0.6228449941     -0.6228449941
    419.4961853027    240.0000000000     -0.6232025027     -0.6232025027
    399.3702392578    240.0000000000     -0.5459100008     -0.5459100008
    399.2652893066    213.3333282471     -0.5451524854     -0.5451524854
    419.4961853027    240.0000000000     -0.6232025027     -0.6232025027
    419.5801696777    266.6666564941     -0.6235324740     -0.6235324740
    399.4752197266    266.6666564941     -0.5466350317     -0.5466350317
    399.3702392578    240.0000000000     -0.5459100008     -0.5459100008
    419.5801696777    266.6666564941     -0.6235324740     -0.6235324740
    419.6641235352    293.3333435059     -0.6238399744     -0.6238399744
    399.5801696777    293.3333435059     -0.5473325253     -0.5473325253
    399.4752197266    266.6666564941     -0.5466350317     -0.5466350317
    419.6641235352    293.3333435059     -0.6238399744     -0.6238399744
    419.7481079102    320.0000000000     -0.6241300106     -0.6241300106
    399.6851196289    320.0000000000     -0.5480074883     -0.5480074883
    399.5801696777    293.3333435059     -0.5473325253     -0.5473325253
    419.7481079102    320.0000000000     -0.6241300106     -0.6241300106
    419.8320617676    346.6666564941     -0.6244049668     -0.6244049668
    399.7900695801    346.6666564941     -0.5486674905     -0.5486674905
    399.6851196289    320.0000000000     -0.5480074883     -0.5480074883
    419.8320617676    346.6666564941     -0.6244049668     -0.6244049668
    419.9160156250    373.3333435059     -0.6246650219     -0.6246650219
    399.8950500488    373.3333435059     -0.5493124723     -0.5493124723
    399.7900695801    346.6666564941     -0.5486674905     -0.5486674905
    419.9160156250    373.3333435059     -0.6246650219     -0.6246650219
    420.0000000000    400.0000000000     -0.6246650219     -0.6246650219
    400.0000000000    400.0000000000     -0.5493124723     -0.5493124723
    399.8950500488    373.3333435059     -0.5493124723     -0.5493124723
    398.4256286621      0.0000000000     -0.5396050215     -0.5396050215
    398.5305786133     26.6666698456     -0.5396050215     -0.5396050215
    378.2366943359     26.6666698456     -0.4000200033     -0.4000200033
    378.1107482910      0.0000000000     -0.4000200033     -0.4000200033
    398.5305786133     26.6666698456     -0.5396050215     -0.5396050215
    398.6355285645     53.3333282471     -0.5403199792     -0.5403199792
    378.3626403809     53.3333282471     -0.4011899829     -0.4011899829
    378.2366943359     26.6666698456     -0.4000200033     -0.4000200033
    398.6355285645     53.3333282471     -0.5403199792     -0.5403199792
    398.7405090332     80.0000000000     -0.5410950184     -0.5410950184
    378.4885864258     80.0000000000     -0.4024274945     -0.4024274945
    378.3626403809     53.3333282471     -0.4011899829     -0.4011899829
    398.7405090332     80.0000000000     -0.5410950184     -0.5410950184
    398.8454589844    106.6666717529     -0.5419099927     -0.5419099927
    378.6145629883    106.6666717529     -0.4037050009     -0.4037050009
    378.4885864258     80.0000000000     -0.4024274945     -0.4024274945
    398.8454589844    106.6666717529     -0.5419099927     -0.5419099927
    398.9504089355    133.3333282471     -0.5427424908     -0.5427424908
    378.7405090332    133.3333282471     -0.4049974680     -0.4049974680
    378.6145629883    106.6666717529     -0.4037050009     -0.4037050009
    398.9504089355    133.3333282471     -0.5427424908     -0.5427424908
    399.0553588867    160.0000000000     -0.5435650349     -0.5435650349
    378.8664550781    160.0000000000     -0.4062799811     -0.4062799811
    378.7405090332    133.3333282471     -0.4049974680     -0.4049974680
    399.0553588867    160.0000000000     -0.5435650349     -0.5435650349
    399.1603393555    186.6666717529     -0.5443674922     -0.5443674922
    378.9924011230    186.6666717529     -0.4075350165     -0.4075350165
    378.8664550781    160.0000000000     -0.4062799811     -0.4062799811
    399.1603393555    186.6666717529     -0.5443674922     -0.5443674922
    399.2652893066    213.3333282471     -0.5451524854     -0.5451524854
    379.1183471680    213.3333282471     -0.4087650180     -0.4087650180
    378.9924011230    186.6666717529     -0.4075350165     -0.4075350165
    399.2652893066    213.3333282471     -0.5451524854     -0.5451524854
    399.3702392578    240.0000000000     -0.5459100008     -0.5459100008
    379.2442932129    240.0000000000     -0.4099624753     -0.4099624753
    379.1183471680    213.3333282471     -0.4087650180     -0.4087650180
    399.3702392578    240.0000000000     -0.5459100008     -0.5459100008
    399.4752197266    266.6666564941     -0.5466350317     -0.5466350317
    379.3702392578    266.6666564941     -0.4111250043     -0.4111250043
    379.2442932129    240.0000000000     -0.4099624753     -0.4099624753
    399.4752197266    266.6666564941     -0.5466350317     -0.5466350317
    399.5801696777    293.3333435059     -0.5473325253     -0.5473325253
    379.4961853027    293.3333435059     -0.4122599661     -0.4122599661
    379.3702392578    266.6666564941     -0.4111250043     -0.4111250043
    399.5801696777    293.3333435059     -0.5473325253     -0.5473325253
    399.6851196289    320.0000000000     -0.5480074883     -0.5480074883
    379.6221618652    320.0000000000     -0.4133699834     -0.4133699834
    379.4961853027    293.3333435059     -0.4122599661     -0.4122599661
    399.6851196289    320.0000000000     -0.5480074883     -0.5480074883
    399.7900695801    346.6666564941     -0.5486674905     -0.5486674905
    379.7481079102    346.6666564941     -0.4144625068     -0.4144625068
    379.6221618652    320.0000000000     -0.4133699834     -0.4133699834
    399.7900695801    346.6666564941     -0.5486674905     -0.5486674905
    399.8950500488    373.3333435059     -0.5493124723     -0.5493124723
    379.8740539551    373.3333435059     -0.4155400097     -0.4155400097
    379.7481079102    346.6666564941     -0.4144625068     -0.4144625068
    399.8950500488    373.3333435059     -0.5493124723     -0.5493124723
    400.0000000000    400.0000000000     -0.5493124723     -0.5493124723
    380.0000000000    400.0000000000     -0.4155400097     -0.4155400097
    379.8740539551    373.3333435059     -0.4155400097     -0.4155400097
    378.1107482910      0.0000000000     -0.4000200033     -0.4000200033
    378.2366943359     26.6666698456     -0.4000200033     -0.4000200033
    357.9428100586     26.6666698456     -0.2167924941     -0.2167924941
    357.7958679199      0.0000000000     -0.2167924941     -0.2167924941
    378.2366943359     26.6666698456     -0.4000200033     -0.4000200033
    378.3626403809     53.3333282471     -0.4011899829     -0.4011899829
    358.0897521973     53.3333282471     -0.2183774859     -0.2183774859
    357.9428100586     26.6666698456     -0.2167924941     -0.2167924941
    378.3626403809     53.3333282471     -0.4011899829     -0.4011899829
    378.4885864258     80.0000000000     -0.4024274945     -0.4024274945
    358.2366943359     80.0000000000     -0.2200325131     -0.2200325131
    358.0897521973     53.3333282471     -0.2183774859     -0.2183774859
    378.4885864258     80.0000000000     -0.4024274945     -0.4024274945
    378.6145629883    106.6666717529     -0.4037050009     -0.4037050009
    358.3836364746    106.6666717529     -0.2217224985     -0.2217224985
    358.2366943359     80.0000000000     -0.2200325131     -0.2200325131
    378.6145629883    106.6666717529     -0.4037050009     -0.4037050009
    378.7405090332    133.3333282471     -0.4049974680     -0.4049974680
    358.5305786133    133.3333282471     -0.2234200090     -0.2234200090
    358.3836364746    106.6666717529     -0.2217224985     -0.2217224985
    378.7405090332    133.3333282471     -0.4049974680     -0.4049974680
    378.8664550781    160.0000000000     -0.4062799811     -0.4062799811
    358.6775207520    160.0000000000     -0.2251049876     -0.2251049876
    358.5305786133    133.3333282471     -0.2234200090     -0.2234200090
    378.8664550781    160.0000000000     -0.4062799811     -0.4062799811
    378.9924011230    186.6666717529     -0.4075350165     -0.4075350165
    358.8244628906    186.6666717529     -0.2267600000     -0.2267600000
    358.6775207520    160.0000000000     -0.2251049876     -0.2251049876
    378.9924011230    186.6666717529     -0.4075350165     -0.4075350165
    379.1183471680    213.3333282471     -0.4087650180     -0.4087650180
    358.9714050293    213.3333282471     -0.2283875048     -0.2283875048
    358.8244628906    186.6666717529     -0.2267600000     -0.2267600000
    379.1183471680    213.3333282471     -0.4087650180     -0.4087650180
    379.2442932129    240.0000000000     -0.4099624753     -0.4099624753
    359.1183471680    240.0000000000     -0.2299824953     -0.2299824953
    358.9714050293    213.3333282471     -0.2283875048     -0.2283875048
    379.2442932129    240.0000000000     -0.4099624753     -0.4099624753
    379.3702392578    266.6666564941     -0.4111250043     -0.4111250043
    359.2652893066    266.6666564941     -0.2315450013     -0.2315450013
    359.1183471680    240.0000000000     -0.2299824953     -0.2299824953
    379.3702392578    266.6666564941     -0.4111250043     -0.4111250043
    379.4961853027    293.3333435059     -0.4122599661     -0.4122599661
    359.4122314453    293.3333435059     -0.2330825031     -0.2330825031
    359.2652893066    266.6666564941     -0.2315450013     -0.2315450013
    379.4961853027    293.3333435059     -0.4122599661     -0.4122599661
    379.6221618652    320.0000000000     -0.4133699834     -0.4133699834
    359.5591735840    320.0000000000     -0.2345974892     -0.2345974892
    359.4122314453    293.3333435059     -0.2330825031     -0.2330825031