 VARIABLES= "X","Y","Z","yita"  
ZONE N=                                        3000 E=                              750 F=FEPOINT, ET=QUADRILATERAL
    500.0000000000      0.0000000000     -0.2860324979     -0.2860324979
    500.0000000000     26.6666698456     -0.2860324979     -0.2860324979
    479.7061157227     26.6666698456     -0.2860324979     -0.2860324979
    479.6851196289      0.0000000000     -0.2860324979     -0.2860324979
    500.0000000000     26.6666698456     -0.2860324979     -0.2860324979
    500.0000000000     53.3333282471     -0.2858375013     -0.2858375013
    479.7271118164     53.3333282471     -0.2858375013     -0.2858375013
    479.7061157227     26.6666698456     -0.2860324979     -0.2860324979
    500.0000000000     53.3333282471     -0.2858375013     -0.2858375013
    500.0000000000     80.0000000000     -0.2856599987     -0.2856599987
    479.7481079102     80.0000000000     -0.2856599987     -0.2856599987
    479.7271118164     53.3333282471     -0.2858375013     -0.2858375013
    500.0000000000     80.0000000000     -0.2856599987     -0.2856599987
    500.0000000000    106.6666717529     -0.2854949832     -0.2854949832
    479.7691040039    106.6666717529     -0.2854949832     -0.2854949832
    479.7481079102     80.0000000000     -0.2856599987     -0.2856599987
    500.0000000000    106.6666717529     -0.2854949832     -0.2854949832
    500.0000000000    133.3333282471     -0.2853375077     -0.2853375077
    479.7900695801    133.3333282471     -0.2853375077     -0.2853375077
    479.7691040039    106.6666717529     -0.2854949832     -0.2854949832
    500.0000000000    133.3333282471     -0.2853375077     -0.2853375077
    500.0000000000    160.0000000000     -0.2851849794     -0.2851849794
    479.8110656738    160.0000000000     -0.2851849794     -0.2851849794
    479.7900695801    133.3333282471     -0.2853375077     -0.2853375077
    500.0000000000    160.0000000000     -0.2851849794     -0.2851849794
    500.0000000000    186.6666717529     -0.2850300074     -0.2850300074
    479.8320617676    186.6666717529     -0.2850300074     -0.2850300074
    479.8110656738    160.0000000000     -0.2851849794     -0.2851849794
    500.0000000000    186.6666717529     -0.2850300074     -0.2850300074
    500.0000000000    213.3333282471     -0.2848674953     -0.2848674953
    479.8530578613    213.3333282471     -0.2848674953     -0.2848674953
    479.8320617676    186.6666717529     -0.2850300074     -0.2850300074
    500.0000000000    213.3333282471     -0.2848674953     -0.2848674953
    500.0000000000    240.0000000000     -0.2847024798     -0.2847024798
    479.8740539551    240.0000000000     -0.2847024798     -0.2847024798
    479.8530578613    213.3333282471     -0.2848674953     -0.2848674953
    500.0000000000    240.0000000000     -0.2847024798     -0.2847024798
    500.0000000000    266.6666564941     -0.2845324874     -0.2845324874
    479.8950500488    266.6666564941     -0.2845324874     -0.2845324874
    479.8740539551    240.0000000000     -0.2847024798     -0.2847024798
    500.0000000000    266.6666564941     -0.2845324874     -0.2845324874
    500.0000000000    293.3333435059     -0.2843525112     -0.2843525112
    479.9160156250    293.3333435059     -0.2843525112     -0.2843525112
    479.8950500488    266.6666564941     -0.2845324874     -0.2845324874
    500.0000000000    293.3333435059     -0.2843525112     -0.2843525112
    500.0000000000    320.0000000000     -0.2841650248     -0.2841650248
    479.9370422363    320.0000000000     -0.2841650248     -0.2841650248
    479.9160156250    293.3333435059     -0.2843525112     -0.2843525112
    500.0000000000    320.0000000000     -0.2841650248     -0.2841650248
    500.0000000000    346.6666564941     -0.2839725018     -0.2839725018
    479.9580078125    346.6666564941     -0.2839725018     -0.2839725018
    479.9370422363    320.0000000000     -0.2841650248     -0.2841650248
    500.0000000000    346.6666564941     -0.2839725018     -0.2839725018
    500.0000000000    373.3333435059     -0.2837750018     -0.2837750018
    479.9790039062    373.3333435059     -0.2837750018     -0.2837750018
    479.9580078125    346.6666564941     -0.2839725018     -0.2839725018
    500.0000000000    373.3333435059     -0.2837750018     -0.2837750018
    500.0000000000    400.0000000000     -0.2837750018     -0.2837750018
    480.0000000000    400.0000000000     -0.2837750018     -0.2837750018
    479.9790039062    373.3333435059     -0.2837750018     -0.2837750018
    479.6851196289      0.0000000000     -0.2860324979     -0.2860324979
    479.7061157227     26.6666698456     -0.2860324979     -0.2860324979
    459.4122314453     26.6666698456     -0.4914550185     -0.4914550185
    459.3702392578      0.0000000000     -0.4914550185     -0.4914550185
    479.7061157227     26.6666698456     -0.2860324979     -0.2860324979
    479.7271118164     53.3333282471     -0.2858375013     -0.2858375013
    459.4542236328     53.3333282471     -0.4911499918     -0.4911499918
    459.4122314453     26.6666698456     -0.4914550185     -0.4914550185
    479.7271118164     53.3333282471     -0.2858375013     -0.2858375013
    479.7481079102     80.0000000000     -0.2856599987     -0.2856599987
    459.4961853027     80.0000000000     -0.4908750057     -0.4908750057
    459.4542236328     53.3333282471     -0.4911499918     -0.4911499918
    479.7481079102     80.0000000000     -0.2856599987     -0.2856599987
    479.7691040039    106.6666717529     -0.2854949832     -0.2854949832
    459.5381774902    106.6666717529     -0.4906249940     -0.4906249940
    459.4961853027     80.0000000000     -0.4908750057     -0.4908750057
    479.7691040039    106.6666717529     -0.2854949832     -0.2854949832
    479.7900695801    133.3333282471     -0.2853375077     -0.2853375077
    459.5801696777    133.3333282471     -0.4903874993     -0.4903874993
    459.5381774902    106.6666717529     -0.4906249940     -0.4906249940
    479.7900695801    133.3333282471     -0.2853375077     -0.2853375077
    479.8110656738    160.0000000000     -0.2851849794     -0.2851849794
    459.6221618652    160.0000000000     -0.4901524782     -0.4901524782
    459.5801696777    133.3333282471     -0.4903874993     -0.4903874993
    479.8110656738    160.0000000000     -0.2851849794     -0.2851849794
    479.8320617676    186.6666717529     -0.2850300074     -0.2850300074
    459.6641235352    186.6666717529     -0.4899150133     -0.4899150133
    459.6221618652    160.0000000000     -0.4901524782     -0.4901524782
    479.8320617676    186.6666717529     -0.2850300074     -0.2850300074
    479.8530578613    213.3333282471     -0.2848674953     -0.2848674953
    459.7061157227    213.3333282471     -0.4896699786     -0.4896699786
    459.6641235352    186.6666717529     -0.4899150133     -0.4899150133
    479.8530578613    213.3333282471     -0.2848674953     -0.2848674953
    479.8740539551    240.0000000000     -0.2847024798     -0.2847024798
    459.7481079102    240.0000000000     -0.4894124866     -0.4894124866
    459.7061157227    213.3333282471     -0.4896699786     -0.4896699786
    479.8740539551    240.0000000000     -0.2847024798     -0.2847024798
    479.8950500488    266.6666564941     -0.2845324874     -0.2845324874
    459.7900695801    266.6666564941     -0.4891425073     -0.4891425073
    459.7481079102    240.0000000000     -0.4894124866     -0.4894124866
    479.8950500488    266.6666564941     -0.2845324874     -0.2845324874
    479.9160156250    293.3333435059     -0.2843525112     -0.2843525112
    459.8320617676    293.3333435059     -0.4888625145     -0.4888625145
    459.7900695801    266.6666564941     -0.4891425073     -0.4891425073
    479.9160156250    293.3333435059     -0.2843525112     -0.2843525112
    479.9370422363    320.0000000000     -0.2841650248     -0.2841650248
    459.8740539551    320.0000000000     -0.4885674715     -0.4885674715
    459.8320617676    293.3333435059     -0.4888625145     -0.4888625145
    479.9370422363    320.0000000000     -0.2841650248     -0.2841650248
    479.9580078125    346.6666564941     -0.2839725018     -0.2839725018
    459.9160156250    346.6666564941     -0.4882574677     -0.4882574677
    459.8740539551    320.0000000000     -0.4885674715     -0.4885674715
    479.9580078125    346.6666564941     -0.2839725018     -0.2839725018
    479.9790039062    373.3333435059     -0.2837750018     -0.2837750018
    459.9580078125    373.3333435059     -0.4879400134     -0.4879400134
    459.9160156250    346.6666564941     -0.4882574677     -0.4882574677
    479.9790039062    373.3333435059     -0.2837750018     -0.2837750018
    480.0000000000    400.0000000000     -0.2837750018     -0.2837750018
    460.0000000000    400.0000000000     -0.4879400134     -0.4879400134
    459.9580078125    373.3333435059     -0.4879400134     -0.4879400134
    459.3702392578      0.0000000000     -0.4914550185     -0.4914550185
    459.4122314453     26.6666698456     -0.4914550185     -0.4914550185
    439.1183471680     26.6666698456     -0.6431325078     -0.6431325078
    439.0553588867      0.0000000000     -0.6431325078     -0.6431325078
    459.4122314453     26.6666698456     -0.4914550185     -0.4914550185
    459.4542236328     53.3333282471     -0.4911499918     -0.4911499918
    439.1813049316     53.3333282471     -0.6428724527     -0.6428724527
    439.1183471680     26.6666698456     -0.6431325078     -0.6431325078
    459.4542236328     53.3333282471     -0.4911499918     -0.4911499918
    459.4961853027     80.0000000000     -0.4908750057     -0.4908750057
    439.2442932129     80.0000000000     -0.6426575184     -0.6426575184
    439.1813049316     53.3333282471     -0.6428724527     -0.6428724527
    459.4961853027     80.0000000000     -0.4908750057     -0.4908750057
    459.5381774902    106.6666717529     -0.4906249940     -0.4906249940
    439.3072814941    106.6666717529     -0.6424750090     -0.6424750090
    439.2442932129     80.0000000000     -0.6426575184     -0.6426575184
    459.5381774902    106.6666717529     -0.4906249940     -0.4906249940
    459.5801696777    133.3333282471     -0.4903874993     -0.4903874993
    439.3702392578    133.3333282471     -0.6423050165     -0.6423050165
    439.3072814941    106.6666717529     -0.6424750090     -0.6424750090
    459.5801696777    133.3333282471     -0.4903874993     -0.4903874993
    459.6221618652    160.0000000000     -0.4901524782     -0.4901524782
    439.4332275391    160.0000000000     -0.6421375275     -0.6421375275
    439.3702392578    133.3333282471     -0.6423050165     -0.6423050165
    459.6221618652    160.0000000000     -0.4901524782     -0.4901524782
    459.6641235352    186.6666717529     -0.4899150133     -0.4899150133
    439.4961853027    186.6666717529     -0.6419650316     -0.6419650316
    439.4332275391    160.0000000000     -0.6421375275     -0.6421375275
    459.6641235352    186.6666717529     -0.4899150133     -0.4899150133
    459.7061157227    213.3333282471     -0.4896699786     -0.4896699786
    439.5591735840    213.3333282471     -0.6417750120     -0.6417750120
    439.4961853027    186.6666717529     -0.6419650316     -0.6419650316
    459.7061157227    213.3333282471     -0.4896699786     -0.4896699786
    459.7481079102    240.0000000000     -0.4894124866     -0.4894124866
    439.6221618652    240.0000000000     -0.6415675282     -0.6415675282
    439.5591735840    213.3333282471     -0.6417750120     -0.6417750120
    459.7481079102    240.0000000000     -0.4894124866     -0.4894124866
    459.7900695801    266.6666564941     -0.4891425073     -0.4891425073
    439.6851196289    266.6666564941     -0.6413400173     -0.6413400173
    439.6221618652    240.0000000000     -0.6415675282     -0.6415675282
    459.7900695801    266.6666564941     -0.4891425073     -0.4891425073
    459.8320617676    293.3333435059     -0.4888625145     -0.4888625145
    439.7481079102    293.3333435059     -0.6410925388     -0.6410925388
    439.6851196289    266.6666564941     -0.6413400173     -0.6413400173
    459.8320617676    293.3333435059     -0.4888625145     -0.4888625145
    459.8740539551    320.0000000000     -0.4885674715     -0.4885674715
    439.8110656738    320.0000000000     -0.6408249736     -0.6408249736
    439.7481079102    293.3333435059     -0.6410925388     -0.6410925388
    459.8740539551    320.0000000000     -0.4885674715     -0.4885674715
    459.9160156250    346.6666564941     -0.4882574677     -0.4882574677
    439.8740539551    346.6666564941     -0.6405400038     -0.6405400038
    439.8110656738    320.0000000000     -0.6408249736     -0.6408249736
    459.9160156250    346.6666564941     -0.4882574677     -0.4882574677
    459.9580078125    373.3333435059     -0.4879400134     -0.4879400134
    439.9370422363    373.3333435059     -0.6402425170     -0.6402425170
    439.8740539551    346.6666564941     -0.6405400038     -0.6405400038
    459.9580078125    373.3333435059     -0.4879400134     -0.4879400134
    460.0000000000    400.0000000000     -0.4879400134     -0.4879400134
    440.0000000000    400.0000000000     -0.6402425170     -0.6402425170
    439.9370422363    373.3333435059     -0.6402425170     -0.6402425170
    439.0553588867      0.0000000000     -0.6431325078     -0.6431325078
    439.1183471680     26.6666698456     -0.6431325078     -0.6431325078
    418.8244628906     26.6666698456     -0.7243174911     -0.7243174911
    418.7405090332      0.0000000000     -0.7243174911     -0.7243174911
    439.1183471680     26.6666698456     -0.6431325078     -0.6431325078
    439.1813049316     53.3333282471     -0.6428724527     -0.6428724527
    418.9084167480     53.3333282471     -0.7242875099     -0.7242875099
    418.8244628906     26.6666698456     -0.7243174911     -0.7243174911
    439.1813049316     53.3333282471     -0.6428724527     -0.6428724527
    439.2442932129     80.0000000000     -0.6426575184     -0.6426575184
    418.9924011230     80.0000000000     -0.7243175507     -0.7243175507
    418.9084167480     53.3333282471     -0.7242875099     -0.7242875099
    439.2442932129     80.0000000000     -0.6426575184     -0.6426575184
    439.3072814941    106.6666717529     -0.6424750090     -0.6424750090
    419.0763549805    106.6666717529     -0.7243850231     -0.7243850231
    418.9924011230     80.0000000000     -0.7243175507     -0.7243175507
    439.3072814941    106.6666717529     -0.6424750090     -0.6424750090
    439.3702392578    133.3333282471     -0.6423050165     -0.6423050165
    419.1603393555    133.3333282471     -0.7244700193     -0.7244700193
    419.0763549805    106.6666717529     -0.7243850231     -0.7243850231
    439.3702392578    133.3333282471     -0.6423050165     -0.6423050165
    439.4332275391    160.0000000000     -0.6421375275     -0.6421375275
    419.2442932129    160.0000000000     -0.7245550156     -0.7245550156
    419.1603393555    133.3333282471     -0.7244700193     -0.7244700193
    439.4332275391    160.0000000000     -0.6421375275     -0.6421375275
    439.4961853027    186.6666717529     -0.6419650316     -0.6419650316
    419.3282775879    186.6666717529     -0.7246250510     -0.7246250510
    419.2442932129    160.0000000000     -0.7245550156     -0.7245550156
    439.4961853027    186.6666717529     -0.6419650316     -0.6419650316
    439.5591735840    213.3333282471     -0.6417750120     -0.6417750120
    419.4122314453    213.3333282471     -0.7246725559     -0.7246725559
    419.3282775879    186.6666717529     -0.7246250510     -0.7246250510
    439.5591735840    213.3333282471     -0.6417750120     -0.6417750120
    439.6221618652    240.0000000000     -0.6415675282     -0.6415675282
    419.4961853027    240.0000000000     -0.7246949673     -0.7246949673
    419.4122314453    213.3333282471     -0.7246725559     -0.7246725559
    439.6221618652    240.0000000000     -0.6415675282     -0.6415675282
    439.6851196289    266.6666564941     -0.6413400173     -0.6413400173
    419.5801696777    266.6666564941     -0.7246900201     -0.7246900201
    419.4961853027    240.0000000000     -0.7246949673     -0.7246949673
    439.6851196289    266.6666564941     -0.6413400173     -0.6413400173
    439.7481079102    293.3333435059     -0.6410925388     -0.6410925388
    419.6641235352    293.3333435059     -0.7246549726     -0.7246549726
    419.5801696777    266.6666564941     -0.7246900201     -0.7246900201
    439.7481079102    293.3333435059     -0.6410925388     -0.6410925388
    439.8110656738    320.0000000000     -0.6408249736     -0.6408249736
    419.7481079102    320.0000000000     -0.7245925069     -0.7245925069
    419.6641235352    293.3333435059     -0.7246549726     -0.7246549726
    439.8110656738    320.0000000000     -0.6408249736     -0.6408249736
    439.8740539551    346.6666564941     -0.6405400038     -0.6405400038
    419.8320617676    346.6666564941     -0.7245124578     -0.7245124578
    419.7481079102    320.0000000000     -0.7245925069     -0.7245925069
    439.8740539551    346.6666564941     -0.6405400038     -0.6405400038
    439.9370422363    373.3333435059     -0.6402425170     -0.6402425170
    419.9160156250    373.3333435059     -0.7244150043     -0.7244150043
    419.8320617676    346.6666564941     -0.7245124578     -0.7245124578
    439.9370422363    373.3333435059     -0.6402425170     -0.6402425170
    440.0000000000    400.0000000000     -0.6402425170     -0.6402425170
    420.0000000000    400.0000000000     -0.7244150043     -0.7244150043
    419.9160156250    373.3333435059     -0.7244150043     -0.7244150043
    418.7405090332      0.0000000000     -0.7243174911     -0.7243174911
    418.8244628906     26.6666698456     -0.7243174911     -0.7243174911
    398.5305786133     26.6666698456     -0.7260749936     -0.7260749936
    398.4256286621      0.0000000000     -0.7260749936     -0.7260749936
    418.8244628906     26.6666698456     -0.7243174911     -0.7243174911
    418.9084167480     53.3333282471     -0.7242875099     -0.7242875099
    398.6355285645     53.3333282471     -0.7264499664     -0.7264499664
    398.5305786133     26.6666698456     -0.7260749936     -0.7260749936
    418.9084167480     53.3333282471     -0.7242875099     -0.7242875099
    418.9924011230     80.0000000000     -0.7243175507     -0.7243175507
    398.7405090332     80.0000000000     -0.7269024849     -0.7269024849
    398.6355285645     53.3333282471     -0.7264499664     -0.7264499664
    418.9924011230     80.0000000000     -0.7243175507     -0.7243175507
    419.0763549805    106.6666717529     -0.7243850231     -0.7243850231
    398.8454589844    106.6666717529     -0.7274025679     -0.7274025679
    398.7405090332     80.0000000000     -0.7269024849     -0.7269024849
    419.0763549805    106.6666717529     -0.7243850231     -0.7243850231
    419.1603393555    133.3333282471     -0.7244700193     -0.7244700193
    398.9504089355    133.3333282471     -0.7279224992     -0.7279224992
    398.8454589844    106.6666717529     -0.7274025679     -0.7274025679
    419.1603393555    133.3333282471     -0.7244700193     -0.7244700193
    419.2442932129    160.0000000000     -0.7245550156     -0.7245550156
    399.0553588867    160.0000000000     -0.7284374833     -0.7284374833
    398.9504089355    133.3333282471     -0.7279224992     -0.7279224992
    419.2442932129    160.0000000000     -0.7245550156     -0.7245550156
    419.3282775879    186.6666717529     -0.7246250510     -0.7246250510
    399.1603393555    186.6666717529     -0.7289299965     -0.7289299965
    399.0553588867    160.0000000000     -0.7284374833     -0.7284374833
    419.3282775879    186.6666717529     -0.7246250510     -0.7246250510
    419.4122314453    213.3333282471     -0.7246725559     -0.7246725559
    399.2652893066    213.3333282471     -0.7293949127     -0.7293949127
    399.1603393555    186.6666717529     -0.7289299965     -0.7289299965
    419.4122314453    213.3333282471     -0.7246725559     -0.7246725559
    419.4961853027    240.0000000000     -0.7246949673     -0.7246949673
    399.3702392578    240.0000000000     -0.7298249602     -0.7298249602
    399.2652893066    213.3333282471     -0.7293949127     -0.7293949127
    419.4961853027    240.0000000000     -0.7246949673     -0.7246949673
    419.5801696777    266.6666564941     -0.7246900201     -0.7246900201
    399.4752197266    266.6666564941     -0.7302174568     -0.7302174568
    399.3702392578    240.0000000000     -0.7298249602     -0.7298249602
    419.5801696777    266.6666564941     -0.7246900201     -0.7246900201
    419.6641235352    293.3333435059     -0.7246549726     -0.7246549726
    399.5801696777    293.3333435059     -0.7305749655     -0.7305749655
    399.4752197266    266.6666564941     -0.7302174568     -0.7302174568
    419.6641235352    293.3333435059     -0.7246549726     -0.7246549726
    419.7481079102    320.0000000000     -0.7245925069     -0.7245925069
    399.6851196289    320.0000000000     -0.7309024930     -0.7309024930
    399.5801696777    293.3333435059     -0.7305749655     -0.7305749655
    419.7481079102    320.0000000000     -0.7245925069     -0.7245925069
    419.8320617676    346.6666564941     -0.7245124578     -0.7245124578
    399.7900695801    346.6666564941     -0.7312074900     -0.7312074900
    399.6851196289    320.0000000000     -0.7309024930     -0.7309024930
    419.8320617676    346.6666564941     -0.7245124578     -0.7245124578
    419.9160156250    373.3333435059     -0.7244150043     -0.7244150043
    399.8950500488    373.3333435059     -0.7314875126     -0.7314875126
    399.7900695801    346.6666564941     -0.7312074900     -0.7312074900
    419.9160156250    373.3333435059     -0.7244150043     -0.7244150043
    420.0000000000    400.0000000000     -0.7244150043     -0.7244150043
    400.0000000000    400.0000000000     -0.7314875126     -0.7314875126
    399.8950500488    373.3333435059     -0.7314875126     -0.7314875126
    398.4256286621      0.0000000000     -0.7260749936     -0.7260749936
    398.5305786133     26.6666698456     -0.7260749936     -0.7260749936
    378.2366943359     26.6666698456     -0.6483024359     -0.6483024359
    378.1107482910      0.0000000000     -0.6483024359     -0.6483024359
    398.5305786133     26.6666698456     -0.7260749936     -0.7260749936
    398.6355285645     53.3333282471     -0.7264499664     -0.7264499664
    378.3626403809     53.3333282471     -0.6492325068     -0.6492325068
    378.2366943359     26.6666698456     -0.6483024359     -0.6483024359
    398.6355285645     53.3333282471     -0.7264499664     -0.7264499664
    398.7405090332     80.0000000000     -0.7269024849     -0.7269024849
    378.4885864258     80.0000000000     -0.6502549648     -0.6502549648
    378.3626403809     53.3333282471     -0.6492325068     -0.6492325068
    398.7405090332     80.0000000000     -0.7269024849     -0.7269024849
    398.8454589844    106.6666717529     -0.7274025679     -0.7274025679
    378.6145629883    106.6666717529     -0.6513324976     -0.6513324976
    378.4885864258     80.0000000000     -0.6502549648     -0.6502549648
    398.8454589844    106.6666717529     -0.7274025679     -0.7274025679
    398.9504089355    133.3333282471     -0.7279224992     -0.7279224992
    378.7405090332    133.3333282471     -0.6524274945     -0.6524274945
    378.6145629883    106.6666717529     -0.6513324976     -0.6513324976
    398.9504089355    133.3333282471     -0.7279224992     -0.7279224992
    399.0553588867    160.0000000000     -0.7284374833     -0.7284374833
    378.8664550781    160.0000000000     -0.6535099745     -0.6535099745
    378.7405090332    133.3333282471     -0.6524274945     -0.6524274945
    399.0553588867    160.0000000000     -0.7284374833     -0.7284374833
    399.1603393555    186.6666717529     -0.7289299965     -0.7289299965
    378.9924011230    186.6666717529     -0.6545599699     -0.6545599699
    378.8664550781    160.0000000000     -0.6535099745     -0.6535099745
    399.1603393555    186.6666717529     -0.7289299965     -0.7289299965
    399.2652893066    213.3333282471     -0.7293949127     -0.7293949127
    379.1183471680    213.3333282471     -0.6555700302     -0.6555700302
    378.9924011230    186.6666717529     -0.6545599699     -0.6545599699
    399.2652893066    213.3333282471     -0.7293949127     -0.7293949127
    399.3702392578    240.0000000000     -0.7298249602     -0.7298249602
    379.2442932129    240.0000000000     -0.6565350294     -0.6565350294
    379.1183471680    213.3333282471     -0.6555700302     -0.6555700302
    399.3702392578    240.0000000000     -0.7298249602     -0.7298249602
    399.4752197266    266.6666564941     -0.7302174568     -0.7302174568
    379.3702392578    266.6666564941     -0.6574550271     -0.6574550271
    379.2442932129    240.0000000000     -0.6565350294     -0.6565350294
    399.4752197266    266.6666564941     -0.7302174568     -0.7302174568
    399.5801696777    293.3333435059     -0.7305749655     -0.7305749655
    379.4961853027    293.3333435059     -0.6583350301     -0.6583350301
    379.3702392578    266.6666564941     -0.6574550271     -0.6574550271
    399.5801696777    293.3333435059     -0.7305749655     -0.7305749655
    399.6851196289    320.0000000000     -0.7309024930     -0.7309024930
    379.6221618652    320.0000000000     -0.6591824889     -0.6591824889
    379.4961853027    293.3333435059     -0.6583350301     -0.6583350301
    399.6851196289    320.0000000000     -0.7309024930     -0.7309024930
    399.7900695801    346.6666564941     -0.7312074900     -0.7312074900
    379.7481079102    346.6666564941     -0.6600025296     -0.6600025296
    379.6221618652    320.0000000000     -0.6591824889     -0.6591824889
    399.7900695801    346.6666564941     -0.7312074900     -0.7312074900
    399.8950500488    373.3333435059     -0.7314875126     -0.7314875126
    379.8740539551    373.3333435059     -0.6607900262     -0.6607900262
    379.7481079102    346.6666564941     -0.6600025296     -0.6600025296
    399.8950500488    373.3333435059     -0.7314875126     -0.7314875126
    400.0000000000    400.0000000000     -0.7314875126     -0.7314875126
    380.0000000000    400.0000000000     -0.6607900262     -0.6607900262
    379.8740539551    373.3333435059     -0.6607900262     -0.6607900262
    378.1107482910      0.0000000000     -0.6483024359     -0.6483024359
    378.2366943359     26.6666698456     -0.6483024359     -0.6483024359
    357.9428100586     26.6666698456     -0.4995375276     -0.4995375276
    357.7958679199      0.0000000000     -0.4995375276     -0.4995375276
    378.2366943359     26.6666698456     -0.6483024359     -0.6483024359
    378.3626403809     53.3333282471     -0.6492325068     -0.6492325068
    358.0897521973     53.3333282471     -0.5010899901     -0.5010899901
    357.9428100586     26.6666698456     -0.4995375276     -0.4995375276
    378.3626403809     53.3333282471     -0.6492325068     -0.6492325068
    378.4885864258     80.0000000000     -0.6502549648     -0.6502549648
    358.2366943359     80.0000000000     -0.5027500391     -0.5027500391
    358.0897521973     53.3333282471     -0.5010899901     -0.5010899901
    378.4885864258     80.0000000000     -0.6502549648     -0.6502549648
    378.6145629883    106.6666717529     -0.6513324976     -0.6513324976
    358.3836364746    106.6666717529     -0.5044624805     -0.5044624805
    358.2366943359     80.0000000000     -0.5027500391     -0.5027500391
    378.6145629883    106.6666717529     -0.6513324976     -0.6513324976
    378.7405090332    133.3333282471     -0.6524274945     -0.6524274945
    358.5305786133    133.3333282471     -0.5061874986     -0.5061874986
    358.3836364746    106.6666717529     -0.5044624805     -0.5044624805
    378.7405090332    133.3333282471     -0.6524274945     -0.6524274945
    378.8664550781    160.0000000000     -0.6535099745     -0.6535099745
    358.6775207520    160.0000000000     -0.5078924894     -0.5078924894
    358.5305786133    133.3333282471     -0.5061874986     -0.5061874986
    378.8664550781    160.0000000000     -0.6535099745     -0.6535099745
    378.9924011230    186.6666717529     -0.6545599699     -0.6545599699
    358.8244628906    186.6666717529     -0.5095499754     -0.5095499754
    358.6775207520    160.0000000000     -0.5078924894     -0.5078924894
    378.9924011230    186.6666717529     -0.6545599699     -0.6545599699
    379.1183471680    213.3333282471     -0.6555700302     -0.6555700302
    358.9714050293    213.3333282471     -0.5111525059     -0.5111525059
    358.8244628906    186.6666717529     -0.5095499754     -0.5095499754
    379.1183471680    213.3333282471     -0.6555700302     -0.6555700302
    379.2442932129    240.0000000000     -0.6565350294     -0.6565350294
    359.1183471680    240.0000000000     -0.5127025247     -0.5127025247
    358.9714050293    213.3333282471     -0.5111525059     -0.5111525059
    379.2442932129    240.0000000000     -0.6565350294     -0.6565350294
    379.3702392578    266.6666564941     -0.6574550271     -0.6574550271
    359.2652893066    266.6666564941     -0.5142049789     -0.5142049789
    359.1183471680    240.0000000000     -0.5127025247     -0.5127025247
    379.3702392578    266.6666564941     -0.6574550271     -0.6574550271
    379.4961853027    293.3333435059     -0.6583350301     -0.6583350301
    359.4122314453    293.3333435059     -0.5156624913     -0.5156624913
    359.2652893066    266.6666564941     -0.5142049789     -0.5142049789
    379.4961853027    293.3333435059     -0.6583350301     -0.6583350301
    379.6221618652    320.0000000000     -0.6591824889     -0.6591824889
    359.5591735840    320.0000000000     -0.5170824528     -0.5170824528
    359.4122314453    293.3333435059     -0.5156624913     -0.5156624913