 VARIABLES= "X","Y","Z","yita"  
ZONE N=                                        3000 E=                              750 F=FEPOINT, ET=QUADRILATERAL
    500.0000000000      0.0000000000      0.0588349998      0.0588349998
    500.0000000000     26.6666698456      0.0588349998      0.0588349998
    479.7061157227     26.6666698456      0.0588349998      0.0588349998
    479.6851196289      0.0000000000      0.0588349998      0.0588349998
    500.0000000000     26.6666698456      0.0588349998      0.0588349998
    500.0000000000     53.3333282471      0.0588150024      0.0588150024
    479.7271118164     53.3333282471      0.0588150024      0.0588150024
    479.7061157227     26.6666698456      0.0588349998      0.0588349998
    500.0000000000     53.3333282471      0.0588150024      0.0588150024
    500.0000000000     80.0000000000      0.0587975010      0.0587975010
    479.7481079102     80.0000000000      0.0587975010      0.0587975010
    479.7271118164     53.3333282471      0.0588150024      0.0588150024
    500.0000000000     80.0000000000      0.0587975010      0.0587975010
    500.0000000000    106.6666717529      0.0587824993      0.0587824993
    479.7691040039    106.6666717529      0.0587824993      0.0587824993
    479.7481079102     80.0000000000      0.0587975010      0.0587975010
    500.0000000000    106.6666717529      0.0587824993      0.0587824993
    500.0000000000    133.3333282471      0.0587674975      0.0587674975
    479.7900695801    133.3333282471      0.0587674975      0.0587674975
    479.7691040039    106.6666717529      0.0587824993      0.0587824993
    500.0000000000    133.3333282471      0.0587674975      0.0587674975
    500.0000000000    160.0000000000      0.0587549955      0.0587549955
    479.8110656738    160.0000000000      0.0587549955      0.0587549955
    479.7900695801    133.3333282471      0.0587674975      0.0587674975
    500.0000000000    160.0000000000      0.0587549955      0.0587549955
    500.0000000000    186.6666717529      0.0587425008      0.0587425008
    479.8320617676    186.6666717529      0.0587425008      0.0587425008
    479.8110656738    160.0000000000      0.0587549955      0.0587549955
    500.0000000000    186.6666717529      0.0587425008      0.0587425008
    500.0000000000    213.3333282471      0.0587299988      0.0587299988
    479.8530578613    213.3333282471      0.0587299988      0.0587299988
    479.8320617676    186.6666717529      0.0587425008      0.0587425008
    500.0000000000    213.3333282471      0.0587299988      0.0587299988
    500.0000000000    240.0000000000      0.0587175004      0.0587175004
    479.8740539551    240.0000000000      0.0587175004      0.0587175004
    479.8530578613    213.3333282471      0.0587299988      0.0587299988
    500.0000000000    240.0000000000      0.0587175004      0.0587175004
    500.0000000000    266.6666564941      0.0587024987      0.0587024987
    479.8950500488    266.6666564941      0.0587024987      0.0587024987
    479.8740539551    240.0000000000      0.0587175004      0.0587175004
    500.0000000000    266.6666564941      0.0587024987      0.0587024987
    500.0000000000    293.3333435059      0.0586849973      0.0586849973
    479.9160156250    293.3333435059      0.0586849973      0.0586849973
    479.8950500488    266.6666564941      0.0587024987      0.0587024987
    500.0000000000    293.3333435059      0.0586849973      0.0586849973
    500.0000000000    320.0000000000      0.0586649999      0.0586649999
    479.9370422363    320.0000000000      0.0586649999      0.0586649999
    479.9160156250    293.3333435059      0.0586849973      0.0586849973
    500.0000000000    320.0000000000      0.0586649999      0.0586649999
    500.0000000000    346.6666564941      0.0586449988      0.0586449988
    479.9580078125    346.6666564941      0.0586449988      0.0586449988
    479.9370422363    320.0000000000      0.0586649999      0.0586649999
    500.0000000000    346.6666564941      0.0586449988      0.0586449988
    500.0000000000    373.3333435059      0.0586249977      0.0586249977
    479.9790039062    373.3333435059      0.0586249977      0.0586249977
    479.9580078125    346.6666564941      0.0586449988      0.0586449988
    500.0000000000    373.3333435059      0.0586249977      0.0586249977
    500.0000000000    400.0000000000      0.0586249977      0.0586249977
    480.0000000000    400.0000000000      0.0586249977      0.0586249977
    479.9790039062    373.3333435059      0.0586249977      0.0586249977
    479.6851196289      0.0000000000      0.0588349998      0.0588349998
    479.7061157227     26.6666698456      0.0588349998      0.0588349998
    459.4122314453     26.6666698456      0.0822099969      0.0822099969
    459.3702392578      0.0000000000      0.0822099969      0.0822099969
    479.7061157227     26.6666698456      0.0588349998      0.0588349998
    479.7271118164     53.3333282471      0.0588150024      0.0588150024
    459.4542236328     53.3333282471      0.0821824968      0.0821824968
    459.4122314453     26.6666698456      0.0822099969      0.0822099969
    479.7271118164     53.3333282471      0.0588150024      0.0588150024
    479.7481079102     80.0000000000      0.0587975010      0.0587975010
    459.4961853027     80.0000000000      0.0821574926      0.0821574926
    459.4542236328     53.3333282471      0.0821824968      0.0821824968
    479.7481079102     80.0000000000      0.0587975010      0.0587975010
    479.7691040039    106.6666717529      0.0587824993      0.0587824993
    459.5381774902    106.6666717529      0.0821325034      0.0821325034
    459.4961853027     80.0000000000      0.0821574926      0.0821574926
    479.7691040039    106.6666717529      0.0587824993      0.0587824993
    479.7900695801    133.3333282471      0.0587674975      0.0587674975
    459.5801696777    133.3333282471      0.0821125060      0.0821125060
    459.5381774902    106.6666717529      0.0821325034      0.0821325034
    479.7900695801    133.3333282471      0.0587674975      0.0587674975
    479.8110656738    160.0000000000      0.0587549955      0.0587549955
    459.6221618652    160.0000000000      0.0820949972      0.0820949972
    459.5801696777    133.3333282471      0.0821125060      0.0821125060
    479.8110656738    160.0000000000      0.0587549955      0.0587549955
    479.8320617676    186.6666717529      0.0587425008      0.0587425008
    459.6641235352    186.6666717529      0.0820749998      0.0820749998
    459.6221618652    160.0000000000      0.0820949972      0.0820949972
    479.8320617676    186.6666717529      0.0587425008      0.0587425008
    479.8530578613    213.3333282471      0.0587299988      0.0587299988
    459.7061157227    213.3333282471      0.0820550025      0.0820550025
    459.6641235352    186.6666717529      0.0820749998      0.0820749998
    479.8530578613    213.3333282471      0.0587299988      0.0587299988
    479.8740539551    240.0000000000      0.0587175004      0.0587175004
    459.7481079102    240.0000000000      0.0820299983      0.0820299983
    459.7061157227    213.3333282471      0.0820550025      0.0820550025
    479.8740539551    240.0000000000      0.0587175004      0.0587175004
    479.8950500488    266.6666564941      0.0587024987      0.0587024987
    459.7900695801    266.6666564941      0.0820050016      0.0820050016
    459.7481079102    240.0000000000      0.0820299983      0.0820299983
    479.8950500488    266.6666564941      0.0587024987      0.0587024987
    479.9160156250    293.3333435059      0.0586849973      0.0586849973
    459.8320617676    293.3333435059      0.0819799975      0.0819799975
    459.7900695801    266.6666564941      0.0820050016      0.0820050016
    479.9160156250    293.3333435059      0.0586849973      0.0586849973
    479.9370422363    320.0000000000      0.0586649999      0.0586649999
    459.8740539551    320.0000000000      0.0819500014      0.0819500014
    459.8320617676    293.3333435059      0.0819799975      0.0819799975
    479.9370422363    320.0000000000      0.0586649999      0.0586649999
    479.9580078125    346.6666564941      0.0586449988      0.0586449988
    459.9160156250    346.6666564941      0.0819199979      0.0819199979
    459.8740539551    320.0000000000      0.0819500014      0.0819500014
    479.9580078125    346.6666564941      0.0586449988      0.0586449988
    479.9790039062    373.3333435059      0.0586249977      0.0586249977
    459.9580078125    373.3333435059      0.0818900019      0.0818900019
    459.9160156250    346.6666564941      0.0819199979      0.0819199979
    479.9790039062    373.3333435059      0.0586249977      0.0586249977
    480.0000000000    400.0000000000      0.0586249977      0.0586249977
    460.0000000000    400.0000000000      0.0818900019      0.0818900019
    459.9580078125    373.3333435059      0.0818900019      0.0818900019
    459.3702392578      0.0000000000      0.0822099969      0.0822099969
    459.4122314453     26.6666698456      0.0822099969      0.0822099969
    439.1183471680     26.6666698456      0.0966000035      0.0966000035
    439.0553588867      0.0000000000      0.0966000035      0.0966000035
    459.4122314453     26.6666698456      0.0822099969      0.0822099969
    459.4542236328     53.3333282471      0.0821824968      0.0821824968
    439.1813049316     53.3333282471      0.0965849981      0.0965849981
    439.1183471680     26.6666698456      0.0966000035      0.0966000035
    459.4542236328     53.3333282471      0.0821824968      0.0821824968
    459.4961853027     80.0000000000      0.0821574926      0.0821574926
    439.2442932129     80.0000000000      0.0965750068      0.0965750068
    439.1813049316     53.3333282471      0.0965849981      0.0965849981
    459.4961853027     80.0000000000      0.0821574926      0.0821574926
    459.5381774902    106.6666717529      0.0821325034      0.0821325034
    439.3072814941    106.6666717529      0.0965649933      0.0965649933
    439.2442932129     80.0000000000      0.0965750068      0.0965750068
    459.5381774902    106.6666717529      0.0821325034      0.0821325034
    459.5801696777    133.3333282471      0.0821125060      0.0821125060
    439.3702392578    133.3333282471      0.0965600014      0.0965600014
    439.3072814941    106.6666717529      0.0965649933      0.0965649933
    459.5801696777    133.3333282471      0.0821125060      0.0821125060
    459.6221618652    160.0000000000      0.0820949972      0.0820949972
    439.4332275391    160.0000000000      0.0965574980      0.0965574980
    439.3702392578    133.3333282471      0.0965600014      0.0965600014
    459.6221618652    160.0000000000      0.0820949972      0.0820949972
    459.6641235352    186.6666717529      0.0820749998      0.0820749998
    439.4961853027    186.6666717529      0.0965500027      0.0965500027
    439.4332275391    160.0000000000      0.0965574980      0.0965574980
    459.6641235352    186.6666717529      0.0820749998      0.0820749998
    459.7061157227    213.3333282471      0.0820550025      0.0820550025
    439.5591735840    213.3333282471      0.0965425000      0.0965425000
    439.4961853027    186.6666717529      0.0965500027      0.0965500027
    459.7061157227    213.3333282471      0.0820550025      0.0820550025
    459.7481079102    240.0000000000      0.0820299983      0.0820299983
    439.6221618652    240.0000000000      0.0965325013      0.0965325013
    439.5591735840    213.3333282471      0.0965425000      0.0965425000
    459.7481079102    240.0000000000      0.0820299983      0.0820299983
    459.7900695801    266.6666564941      0.0820050016      0.0820050016
    439.6851196289    266.6666564941      0.0965175033      0.0965175033
    439.6221618652    240.0000000000      0.0965325013      0.0965325013
    459.7900695801    266.6666564941      0.0820050016      0.0820050016
    459.8320617676    293.3333435059      0.0819799975      0.0819799975
    439.7481079102    293.3333435059      0.0965024978      0.0965024978
    439.6851196289    266.6666564941      0.0965175033      0.0965175033
    459.8320617676    293.3333435059      0.0819799975      0.0819799975
    459.8740539551    320.0000000000      0.0819500014      0.0819500014
    439.8110656738    320.0000000000      0.0964850038      0.0964850038
    439.7481079102    293.3333435059      0.0965024978      0.0965024978
    459.8740539551    320.0000000000      0.0819500014      0.0819500014
    459.9160156250    346.6666564941      0.0819199979      0.0819199979
    439.8740539551    346.6666564941      0.0964650065      0.0964650065
    439.8110656738    320.0000000000      0.0964850038      0.0964850038
    459.9160156250    346.6666564941      0.0819199979      0.0819199979
    459.9580078125    373.3333435059      0.0818900019      0.0818900019
    439.9370422363    373.3333435059      0.0964450017      0.0964450017
    439.8740539551    346.6666564941      0.0964650065      0.0964650065
    459.9580078125    373.3333435059      0.0818900019      0.0818900019
    460.0000000000    400.0000000000      0.0818900019      0.0818900019
    440.0000000000    400.0000000000      0.0964450017      0.0964450017
    439.9370422363    373.3333435059      0.0964450017      0.0964450017
    439.0553588867      0.0000000000      0.0966000035      0.0966000035
    439.1183471680     26.6666698456      0.0966000035      0.0966000035
    418.8244628906     26.6666698456      0.1004325002      0.1004325002
    418.7405090332      0.0000000000      0.1004325002      0.1004325002
    439.1183471680     26.6666698456      0.0966000035      0.0966000035
    439.1813049316     53.3333282471      0.0965849981      0.0965849981
    418.9084167480     53.3333282471      0.1004524976      0.1004524976
    418.8244628906     26.6666698456      0.1004325002      0.1004325002
    439.1813049316     53.3333282471      0.0965849981      0.0965849981
    439.2442932129     80.0000000000      0.0965750068      0.0965750068
    418.9924011230     80.0000000000      0.1004799977      0.1004799977
    418.9084167480     53.3333282471      0.1004524976      0.1004524976
    439.2442932129     80.0000000000      0.0965750068      0.0965750068
    439.3072814941    106.6666717529      0.0965649933      0.0965649933
    419.0763549805    106.6666717529      0.1005100012      0.1005100012
    418.9924011230     80.0000000000      0.1004799977      0.1004799977
    439.3072814941    106.6666717529      0.0965649933      0.0965649933
    439.3702392578    133.3333282471      0.0965600014      0.0965600014
    419.1603393555    133.3333282471      0.1005400047      0.1005400047
    419.0763549805    106.6666717529      0.1005100012      0.1005100012
    439.3702392578    133.3333282471      0.0965600014      0.0965600014
    439.4332275391    160.0000000000      0.0965574980      0.0965574980
    419.2442932129    160.0000000000      0.1005724967      0.1005724967
    419.1603393555    133.3333282471      0.1005400047      0.1005400047
    439.4332275391    160.0000000000      0.0965574980      0.0965574980
    439.4961853027    186.6666717529      0.0965500027      0.0965500027
    419.3282775879    186.6666717529      0.1006025001      0.1006025001
    419.2442932129    160.0000000000      0.1005724967      0.1005724967
    439.4961853027    186.6666717529      0.0965500027      0.0965500027
    439.5591735840    213.3333282471      0.0965425000      0.0965425000
    419.4122314453    213.3333282471      0.1006300002      0.1006300002
    419.3282775879    186.6666717529      0.1006025001      0.1006025001
    439.5591735840    213.3333282471      0.0965425000      0.0965425000
    439.6221618652    240.0000000000      0.0965325013      0.0965325013
    419.4961853027    240.0000000000      0.1006549969      0.1006549969
    419.4122314453    213.3333282471      0.1006300002      0.1006300002
    439.6221618652    240.0000000000      0.0965325013      0.0965325013
    439.6851196289    266.6666564941      0.0965175033      0.0965175033
    419.5801696777    266.6666564941      0.1006750017      0.1006750017
    419.4961853027    240.0000000000      0.1006549969      0.1006549969
    439.6851196289    266.6666564941      0.0965175033      0.0965175033
    439.7481079102    293.3333435059      0.0965024978      0.0965024978
    419.6641235352    293.3333435059      0.1006950065      0.1006950065
    419.5801696777    266.6666564941      0.1006750017      0.1006750017
    439.7481079102    293.3333435059      0.0965024978      0.0965024978
    439.8110656738    320.0000000000      0.0964850038      0.0964850038
    419.7481079102    320.0000000000      0.1007125005      0.1007125005
    419.6641235352    293.3333435059      0.1006950065      0.1006950065
    439.8110656738    320.0000000000      0.0964850038      0.0964850038
    439.8740539551    346.6666564941      0.0964650065      0.0964650065
    419.8320617676    346.6666564941      0.1007274985      0.1007274985
    419.7481079102    320.0000000000      0.1007125005      0.1007125005
    439.8740539551    346.6666564941      0.0964650065      0.0964650065
    439.9370422363    373.3333435059      0.0964450017      0.0964450017
    419.9160156250    373.3333435059      0.1007400006      0.1007400006
    419.8320617676    346.6666564941      0.1007274985      0.1007274985
    439.9370422363    373.3333435059      0.0964450017      0.0964450017
    440.0000000000    400.0000000000      0.0964450017      0.0964450017
    420.0000000000    400.0000000000      0.1007400006      0.1007400006
    419.9160156250    373.3333435059      0.1007400006      0.1007400006
    418.7405090332      0.0000000000      0.1004325002      0.1004325002
    418.8244628906     26.6666698456      0.1004325002      0.1004325002
    398.5305786133     26.6666698456      0.0932825059      0.0932825059
    398.4256286621      0.0000000000      0.0932825059      0.0932825059
    418.8244628906     26.6666698456      0.1004325002      0.1004325002
    418.9084167480     53.3333282471      0.1004524976      0.1004524976
    398.6355285645     53.3333282471      0.0933600068      0.0933600068
    398.5305786133     26.6666698456      0.0932825059      0.0932825059
    418.9084167480     53.3333282471      0.1004524976      0.1004524976
    418.9924011230     80.0000000000      0.1004799977      0.1004799977
    398.7405090332     80.0000000000      0.0934424996      0.0934424996
    398.6355285645     53.3333282471      0.0933600068      0.0933600068
    418.9924011230     80.0000000000      0.1004799977      0.1004799977
    419.0763549805    106.6666717529      0.1005100012      0.1005100012
    398.8454589844    106.6666717529      0.0935299993      0.0935299993
    398.7405090332     80.0000000000      0.0934424996      0.0934424996
    419.0763549805    106.6666717529      0.1005100012      0.1005100012
    419.1603393555    133.3333282471      0.1005400047      0.1005400047
    398.9504089355    133.3333282471      0.0936174989      0.0936174989
    398.8454589844    106.6666717529      0.0935299993      0.0935299993
    419.1603393555    133.3333282471      0.1005400047      0.1005400047
    419.2442932129    160.0000000000      0.1005724967      0.1005724967
    399.0553588867    160.0000000000      0.0937049985      0.0937049985
    398.9504089355    133.3333282471      0.0936174989      0.0936174989
    419.2442932129    160.0000000000      0.1005724967      0.1005724967
    419.3282775879    186.6666717529      0.1006025001      0.1006025001
    399.1603393555    186.6666717529      0.0937924981      0.0937924981
    399.0553588867    160.0000000000      0.0937049985      0.0937049985
    419.3282775879    186.6666717529      0.1006025001      0.1006025001
    419.4122314453    213.3333282471      0.1006300002      0.1006300002
    399.2652893066    213.3333282471      0.0938749909      0.0938749909
    399.1603393555    186.6666717529      0.0937924981      0.0937924981
    419.4122314453    213.3333282471      0.1006300002      0.1006300002
    419.4961853027    240.0000000000      0.1006549969      0.1006549969
    399.3702392578    240.0000000000      0.0939525068      0.0939525068
    399.2652893066    213.3333282471      0.0938749909      0.0938749909
    419.4961853027    240.0000000000      0.1006549969      0.1006549969
    419.5801696777    266.6666564941      0.1006750017      0.1006750017
    399.4752197266    266.6666564941      0.0940299928      0.0940299928
    399.3702392578    240.0000000000      0.0939525068      0.0939525068
    419.5801696777    266.6666564941      0.1006750017      0.1006750017
    419.6641235352    293.3333435059      0.1006950065      0.1006950065
    399.5801696777    293.3333435059      0.0941049978      0.0941049978
    399.4752197266    266.6666564941      0.0940299928      0.0940299928
    419.6641235352    293.3333435059      0.1006950065      0.1006950065
    419.7481079102    320.0000000000      0.1007125005      0.1007125005
    399.6851196289    320.0000000000      0.0941774994      0.0941774994
    399.5801696777    293.3333435059      0.0941049978      0.0941049978
    419.7481079102    320.0000000000      0.1007125005      0.1007125005
    419.8320617676    346.6666564941      0.1007274985      0.1007274985
    399.7900695801    346.6666564941      0.0942500010      0.0942500010
    399.6851196289    320.0000000000      0.0941774994      0.0941774994
    419.8320617676    346.6666564941      0.1007274985      0.1007274985
    419.9160156250    373.3333435059      0.1007400006      0.1007400006
    399.8950500488    373.3333435059      0.0943175033      0.0943175033
    399.7900695801    346.6666564941      0.0942500010      0.0942500010
    419.9160156250    373.3333435059      0.1007400006      0.1007400006
    420.0000000000    400.0000000000      0.1007400006      0.1007400006
    400.0000000000    400.0000000000      0.0943175033      0.0943175033
    399.8950500488    373.3333435059      0.0943175033      0.0943175033
    398.4256286621      0.0000000000      0.0932825059      0.0932825059
    398.5305786133     26.6666698456      0.0932825059      0.0932825059
    378.2366943359     26.6666698456      0.0759375021      0.0759375021
    378.1107482910      0.0000000000      0.0759375021      0.0759375021
    398.5305786133     26.6666698456      0.0932825059      0.0932825059
    398.6355285645     53.3333282471      0.0933600068      0.0933600068
    378.3626403809     53.3333282471      0.0760850012      0.0760850012
    378.2366943359     26.6666698456      0.0759375021      0.0759375021
    398.6355285645     53.3333282471      0.0933600068      0.0933600068
    398.7405090332     80.0000000000      0.0934424996      0.0934424996
    378.4885864258     80.0000000000      0.0762374997      0.0762374997
    378.3626403809     53.3333282471      0.0760850012      0.0760850012
    398.7405090332     80.0000000000      0.0934424996      0.0934424996
    398.8454589844    106.6666717529      0.0935299993      0.0935299993
    378.6145629883    106.6666717529      0.0763925016      0.0763925016
    378.4885864258     80.0000000000      0.0762374997      0.0762374997
    398.8454589844    106.6666717529      0.0935299993      0.0935299993
    398.9504089355    133.3333282471      0.0936174989      0.0936174989
    378.7405090332    133.3333282471      0.0765474960      0.0765474960
    378.6145629883    106.6666717529      0.0763925016      0.0763925016
    398.9504089355    133.3333282471      0.0936174989      0.0936174989
    399.0553588867    160.0000000000      0.0937049985      0.0937049985
    378.8664550781    160.0000000000      0.0767024979      0.0767024979
    378.7405090332    133.3333282471      0.0765474960      0.0765474960
    399.0553588867    160.0000000000      0.0937049985      0.0937049985
    399.1603393555    186.6666717529      0.0937924981      0.0937924981
    378.9924011230    186.6666717529      0.0768574998      0.0768574998
    378.8664550781    160.0000000000      0.0767024979      0.0767024979
    399.1603393555    186.6666717529      0.0937924981      0.0937924981
    399.2652893066    213.3333282471      0.0938749909      0.0938749909
    379.1183471680    213.3333282471      0.0770075023      0.0770075023
    378.9924011230    186.6666717529      0.0768574998      0.0768574998
    399.2652893066    213.3333282471      0.0938749909      0.0938749909
    399.3702392578    240.0000000000      0.0939525068      0.0939525068
    379.2442932129    240.0000000000      0.0771550015      0.0771550015
    379.1183471680    213.3333282471      0.0770075023      0.0770075023
    399.3702392578    240.0000000000      0.0939525068      0.0939525068
    399.4752197266    266.6666564941      0.0940299928      0.0940299928
    379.3702392578    266.6666564941      0.0773025006      0.0773025006
    379.2442932129    240.0000000000      0.0771550015      0.0771550015
    399.4752197266    266.6666564941      0.0940299928      0.0940299928
    399.5801696777    293.3333435059      0.0941049978      0.0941049978
    379.4961853027    293.3333435059      0.0774424970      0.0774424970
    379.3702392578    266.6666564941      0.0773025006      0.0773025006
    399.5801696777    293.3333435059      0.0941049978      0.0941049978
    399.6851196289    320.0000000000      0.0941774994      0.0941774994
    379.6221618652    320.0000000000      0.0775825009      0.0775825009
    379.4961853027    293.3333435059      0.0774424970      0.0774424970
    399.6851196289    320.0000000000      0.0941774994      0.0941774994
    399.7900695801    346.6666564941      0.0942500010      0.0942500010
    379.7481079102    346.6666564941      0.0777250007      0.0777250007
    379.6221618652    320.0000000000      0.0775825009      0.0775825009
    399.7900695801    346.6666564941      0.0942500010      0.0942500010
    399.8950500488    373.3333435059      0.0943175033      0.0943175033
    379.8740539551    373.3333435059      0.0778625011      0.0778625011
    379.7481079102    346.6666564941      0.0777250007      0.0777250007
    399.8950500488    373.3333435059      0.0943175033      0.0943175033
    400.0000000000    400.0000000000      0.0943175033      0.0943175033
    380.0000000000    400.0000000000      0.0778625011      0.0778625011
    379.8740539551    373.3333435059      0.0778625011      0.0778625011
    378.1107482910      0.0000000000      0.0759375021      0.0759375021
    378.2366943359     26.6666698456      0.0759375021      0.0759375021
    357.9428100586     26.6666698456      0.0503174998      0.0503174998
    357.7958679199      0.0000000000      0.0503174998      0.0503174998
    378.2366943359     26.6666698456      0.0759375021      0.0759375021
    378.3626403809     53.3333282471      0.0760850012      0.0760850012
    358.0897521973     53.3333282471      0.0505349971      0.0505349971
    357.9428100586     26.6666698456      0.0503174998      0.0503174998
    378.3626403809     53.3333282471      0.0760850012      0.0760850012
    378.4885864258     80.0000000000      0.0762374997      0.0762374997
    358.2366943359     80.0000000000      0.0507550016      0.0507550016
    358.0897521973     53.3333282471      0.0505349971      0.0505349971
    378.4885864258     80.0000000000      0.0762374997      0.0762374997
    378.6145629883    106.6666717529      0.0763925016      0.0763925016
    358.3836364746    106.6666717529      0.0509750023      0.0509750023
    358.2366943359     80.0000000000      0.0507550016      0.0507550016
    378.6145629883    106.6666717529      0.0763925016      0.0763925016
    378.7405090332    133.3333282471      0.0765474960      0.0765474960
    358.5305786133    133.3333282471      0.0511949956      0.0511949956
    358.3836364746    106.6666717529      0.0509750023      0.0509750023
    378.7405090332    133.3333282471      0.0765474960      0.0765474960
    378.8664550781    160.0000000000      0.0767024979      0.0767024979
    358.6775207520    160.0000000000      0.0514150001      0.0514150001
    358.5305786133    133.3333282471      0.0511949956      0.0511949956
    378.8664550781    160.0000000000      0.0767024979      0.0767024979
    378.9924011230    186.6666717529      0.0768574998      0.0768574998
    358.8244628906    186.6666717529      0.0516350009      0.0516350009
    358.6775207520    160.0000000000      0.0514150001      0.0514150001
    378.9924011230    186.6666717529      0.0768574998      0.0768574998
    379.1183471680    213.3333282471      0.0770075023      0.0770075023
    358.9714050293    213.3333282471      0.0518525019      0.0518525019
    358.8244628906    186.6666717529      0.0516350009      0.0516350009
    379.1183471680    213.3333282471      0.0770075023      0.0770075023
    379.2442932129    240.0000000000      0.0771550015      0.0771550015
    359.1183471680    240.0000000000      0.0520675033      0.0520675033
    358.9714050293    213.3333282471      0.0518525019      0.0518525019
    379.2442932129    240.0000000000      0.0771550015      0.0771550015
    379.3702392578    266.6666564941      0.0773025006      0.0773025006
    359.2652893066    266.6666564941      0.0522825010      0.0522825010
    359.1183471680    240.0000000000      0.0520675033      0.0520675033
    379.3702392578    266.6666564941      0.0773025006      0.0773025006
    379.4961853027    293.3333435059      0.0774424970      0.0774424970
    359.4122314453    293.3333435059      0.0524949990      0.0524949990
    359.2652893066    266.6666564941      0.0522825010      0.0522825010
    379.4961853027    293.3333435059      0.0774424970      0.0774424970
    379.6221618652    320.0000000000      0.0775825009      0.0775825009
    359.5591735840    320.0000000000      0.0527049974      0.0527049974
    359.4122314453    293.3333435059      0.0524949990      0.0524949990