 VARIABLES= "X","Y","Z","yita"  
ZONE N=                                        3000 E=                              750 F=FEPOINT, ET=QUADRILATERAL
    500.0000000000      0.0000000000      0.0135900006      0.0135900006
    500.0000000000     26.6666698456      0.0135900006      0.0135900006
    479.7061157227     26.6666698456      0.0135900006      0.0135900006
    479.6851196289      0.0000000000      0.0135900006      0.0135900006
    500.0000000000     26.6666698456      0.0135900006      0.0135900006
    500.0000000000     53.3333282471      0.0135900006      0.0135900006
    479.7271118164     53.3333282471      0.0135900006      0.0135900006
    479.7061157227     26.6666698456      0.0135900006      0.0135900006
    500.0000000000     53.3333282471      0.0135900006      0.0135900006
    500.0000000000     80.0000000000      0.0135900006      0.0135900006
    479.7481079102     80.0000000000      0.0135900006      0.0135900006
    479.7271118164     53.3333282471      0.0135900006      0.0135900006
    500.0000000000     80.0000000000      0.0135900006      0.0135900006
    500.0000000000    106.6666717529      0.0135900006      0.0135900006
    479.7691040039    106.6666717529      0.0135900006      0.0135900006
    479.7481079102     80.0000000000      0.0135900006      0.0135900006
    500.0000000000    106.6666717529      0.0135900006      0.0135900006
    500.0000000000    133.3333282471      0.0135900006      0.0135900006
    479.7900695801    133.3333282471      0.0135900006      0.0135900006
    479.7691040039    106.6666717529      0.0135900006      0.0135900006
    500.0000000000    133.3333282471      0.0135900006      0.0135900006
    500.0000000000    160.0000000000      0.0135900006      0.0135900006
    479.8110656738    160.0000000000      0.0135900006      0.0135900006
    479.7900695801    133.3333282471      0.0135900006      0.0135900006
    500.0000000000    160.0000000000      0.0135900006      0.0135900006
    500.0000000000    186.6666717529      0.0135875009      0.0135875009
    479.8320617676    186.6666717529      0.0135875009      0.0135875009
    479.8110656738    160.0000000000      0.0135900006      0.0135900006
    500.0000000000    186.6666717529      0.0135875009      0.0135875009
    500.0000000000    213.3333282471      0.0135850003      0.0135850003
    479.8530578613    213.3333282471      0.0135850003      0.0135850003
    479.8320617676    186.6666717529      0.0135875009      0.0135875009
    500.0000000000    213.3333282471      0.0135850003      0.0135850003
    500.0000000000    240.0000000000      0.0135850003      0.0135850003
    479.8740539551    240.0000000000      0.0135850003      0.0135850003
    479.8530578613    213.3333282471      0.0135850003      0.0135850003
    500.0000000000    240.0000000000      0.0135850003      0.0135850003
    500.0000000000    266.6666564941      0.0135850003      0.0135850003
    479.8950500488    266.6666564941      0.0135850003      0.0135850003
    479.8740539551    240.0000000000      0.0135850003      0.0135850003
    500.0000000000    266.6666564941      0.0135850003      0.0135850003
    500.0000000000    293.3333435059      0.0135850003      0.0135850003
    479.9160156250    293.3333435059      0.0135850003      0.0135850003
    479.8950500488    266.6666564941      0.0135850003      0.0135850003
    500.0000000000    293.3333435059      0.0135850003      0.0135850003
    500.0000000000    320.0000000000      0.0135850003      0.0135850003
    479.9370422363    320.0000000000      0.0135850003      0.0135850003
    479.9160156250    293.3333435059      0.0135850003      0.0135850003
    500.0000000000    320.0000000000      0.0135850003      0.0135850003
    500.0000000000    346.6666564941      0.0135850003      0.0135850003
    479.9580078125    346.6666564941      0.0135850003      0.0135850003
    479.9370422363    320.0000000000      0.0135850003      0.0135850003
    500.0000000000    346.6666564941      0.0135850003      0.0135850003
    500.0000000000    373.3333435059      0.0135850003      0.0135850003
    479.9790039062    373.3333435059      0.0135850003      0.0135850003
    479.9580078125    346.6666564941      0.0135850003      0.0135850003
    500.0000000000    373.3333435059      0.0135850003      0.0135850003
    500.0000000000    400.0000000000      0.0135850003      0.0135850003
    480.0000000000    400.0000000000      0.0135850003      0.0135850003
    479.9790039062    373.3333435059      0.0135850003      0.0135850003
    479.6851196289      0.0000000000      0.0135900006      0.0135900006
    479.7061157227     26.6666698456      0.0135900006      0.0135900006
    459.4122314453     26.6666698456      0.0136075001      0.0136075001
    459.3702392578      0.0000000000      0.0136075001      0.0136075001
    479.7061157227     26.6666698456      0.0135900006      0.0135900006
    479.7271118164     53.3333282471      0.0135900006      0.0135900006
    459.4542236328     53.3333282471      0.0136099998      0.0136099998
    459.4122314453     26.6666698456      0.0136075001      0.0136075001
    479.7271118164     53.3333282471      0.0135900006      0.0135900006
    479.7481079102     80.0000000000      0.0135900006      0.0135900006
    459.4961853027     80.0000000000      0.0136099998      0.0136099998
    459.4542236328     53.3333282471      0.0136099998      0.0136099998
    479.7481079102     80.0000000000      0.0135900006      0.0135900006
    479.7691040039    106.6666717529      0.0135900006      0.0135900006
    459.5381774902    106.6666717529      0.0136125004      0.0136125004
    459.4961853027     80.0000000000      0.0136099998      0.0136099998
    479.7691040039    106.6666717529      0.0135900006      0.0135900006
    479.7900695801    133.3333282471      0.0135900006      0.0135900006
    459.5801696777    133.3333282471      0.0136150001      0.0136150001
    459.5381774902    106.6666717529      0.0136125004      0.0136125004
    479.7900695801    133.3333282471      0.0135900006      0.0135900006
    479.8110656738    160.0000000000      0.0135900006      0.0135900006
    459.6221618652    160.0000000000      0.0136174997      0.0136174997
    459.5801696777    133.3333282471      0.0136150001      0.0136150001
    479.8110656738    160.0000000000      0.0135900006      0.0135900006
    479.8320617676    186.6666717529      0.0135875009      0.0135875009
    459.6641235352    186.6666717529      0.0136200003      0.0136200003
    459.6221618652    160.0000000000      0.0136174997      0.0136174997
    479.8320617676    186.6666717529      0.0135875009      0.0135875009
    479.8530578613    213.3333282471      0.0135850003      0.0135850003
    459.7061157227    213.3333282471      0.0136200003      0.0136200003
    459.6641235352    186.6666717529      0.0136200003      0.0136200003
    479.8530578613    213.3333282471      0.0135850003      0.0135850003
    479.8740539551    240.0000000000      0.0135850003      0.0135850003
    459.7481079102    240.0000000000      0.0136225000      0.0136225000
    459.7061157227    213.3333282471      0.0136200003      0.0136200003
    479.8740539551    240.0000000000      0.0135850003      0.0135850003
    479.8950500488    266.6666564941      0.0135850003      0.0135850003
    459.7900695801    266.6666564941      0.0136249997      0.0136249997
    459.7481079102    240.0000000000      0.0136225000      0.0136225000
    479.8950500488    266.6666564941      0.0135850003      0.0135850003
    479.9160156250    293.3333435059      0.0135850003      0.0135850003
    459.8320617676    293.3333435059      0.0136249997      0.0136249997
    459.7900695801    266.6666564941      0.0136249997      0.0136249997
    479.9160156250    293.3333435059      0.0135850003      0.0135850003
    479.9370422363    320.0000000000      0.0135850003      0.0135850003
    459.8740539551    320.0000000000      0.0136275003      0.0136275003
    459.8320617676    293.3333435059      0.0136249997      0.0136249997
    479.9370422363    320.0000000000      0.0135850003      0.0135850003
    479.9580078125    346.6666564941      0.0135850003      0.0135850003
    459.9160156250    346.6666564941      0.0136299999      0.0136299999
    459.8740539551    320.0000000000      0.0136275003      0.0136275003
    479.9580078125    346.6666564941      0.0135850003      0.0135850003
    479.9790039062    373.3333435059      0.0135850003      0.0135850003
    459.9580078125    373.3333435059      0.0136324996      0.0136324996
    459.9160156250    346.6666564941      0.0136299999      0.0136299999
    479.9790039062    373.3333435059      0.0135850003      0.0135850003
    480.0000000000    400.0000000000      0.0135850003      0.0135850003
    460.0000000000    400.0000000000      0.0136324996      0.0136324996
    459.9580078125    373.3333435059      0.0136324996      0.0136324996
    459.3702392578      0.0000000000      0.0136075001      0.0136075001
    459.4122314453     26.6666698456      0.0136075001      0.0136075001
    439.1183471680     26.6666698456      0.0121400002      0.0121400002
    439.0553588867      0.0000000000      0.0121400002      0.0121400002
    459.4122314453     26.6666698456      0.0136075001      0.0136075001
    459.4542236328     53.3333282471      0.0136099998      0.0136099998
    439.1813049316     53.3333282471      0.0121475002      0.0121475002
    439.1183471680     26.6666698456      0.0121400002      0.0121400002
    459.4542236328     53.3333282471      0.0136099998      0.0136099998
    459.4961853027     80.0000000000      0.0136099998      0.0136099998
    439.2442932129     80.0000000000      0.0121525005      0.0121525005
    439.1813049316     53.3333282471      0.0121475002      0.0121475002
    459.4961853027     80.0000000000      0.0136099998      0.0136099998
    459.5381774902    106.6666717529      0.0136125004      0.0136125004
    439.3072814941    106.6666717529      0.0121600004      0.0121600004
    439.2442932129     80.0000000000      0.0121525005      0.0121525005
    459.5381774902    106.6666717529      0.0136125004      0.0136125004
    459.5801696777    133.3333282471      0.0136150001      0.0136150001
    439.3702392578    133.3333282471      0.0121674994      0.0121674994
    439.3072814941    106.6666717529      0.0121600004      0.0121600004
    459.5801696777    133.3333282471      0.0136150001      0.0136150001
    459.6221618652    160.0000000000      0.0136174997      0.0136174997
    439.4332275391    160.0000000000      0.0121749993      0.0121749993
    439.3702392578    133.3333282471      0.0121674994      0.0121674994
    459.6221618652    160.0000000000      0.0136174997      0.0136174997
    459.6641235352    186.6666717529      0.0136200003      0.0136200003
    439.4961853027    186.6666717529      0.0121825002      0.0121825002
    439.4332275391    160.0000000000      0.0121749993      0.0121749993
    459.6641235352    186.6666717529      0.0136200003      0.0136200003
    459.7061157227    213.3333282471      0.0136200003      0.0136200003
    439.5591735840    213.3333282471      0.0121874996      0.0121874996
    439.4961853027    186.6666717529      0.0121825002      0.0121825002
    459.7061157227    213.3333282471      0.0136200003      0.0136200003
    459.7481079102    240.0000000000      0.0136225000      0.0136225000
    439.6221618652    240.0000000000      0.0121950004      0.0121950004
    439.5591735840    213.3333282471      0.0121874996      0.0121874996
    459.7481079102    240.0000000000      0.0136225000      0.0136225000
    459.7900695801    266.6666564941      0.0136249997      0.0136249997
    439.6851196289    266.6666564941      0.0122025004      0.0122025004
    439.6221618652    240.0000000000      0.0121950004      0.0121950004
    459.7900695801    266.6666564941      0.0136249997      0.0136249997
    459.8320617676    293.3333435059      0.0136249997      0.0136249997
    439.7481079102    293.3333435059      0.0122074997      0.0122074997
    439.6851196289    266.6666564941      0.0122025004      0.0122025004
    459.8320617676    293.3333435059      0.0136249997      0.0136249997
    459.8740539551    320.0000000000      0.0136275003      0.0136275003
    439.8110656738    320.0000000000      0.0122149996      0.0122149996
    439.7481079102    293.3333435059      0.0122074997      0.0122074997
    459.8740539551    320.0000000000      0.0136275003      0.0136275003
    459.9160156250    346.6666564941      0.0136299999      0.0136299999
    439.8740539551    346.6666564941      0.0122224996      0.0122224996
    439.8110656738    320.0000000000      0.0122149996      0.0122149996
    459.9160156250    346.6666564941      0.0136299999      0.0136299999
    459.9580078125    373.3333435059      0.0136324996      0.0136324996
    439.9370422363    373.3333435059      0.0122299995      0.0122299995
    439.8740539551    346.6666564941      0.0122224996      0.0122224996
    459.9580078125    373.3333435059      0.0136324996      0.0136324996
    460.0000000000    400.0000000000      0.0136324996      0.0136324996
    440.0000000000    400.0000000000      0.0122299995      0.0122299995
    439.9370422363    373.3333435059      0.0122299995      0.0122299995
    439.0553588867      0.0000000000      0.0121400002      0.0121400002
    439.1183471680     26.6666698456      0.0121400002      0.0121400002
    418.8244628906     26.6666698456      0.0093475003      0.0093475003
    418.7405090332      0.0000000000      0.0093475003      0.0093475003
    439.1183471680     26.6666698456      0.0121400002      0.0121400002
    439.1813049316     53.3333282471      0.0121475002      0.0121475002
    418.9084167480     53.3333282471      0.0093625002      0.0093625002
    418.8244628906     26.6666698456      0.0093475003      0.0093475003
    439.1813049316     53.3333282471      0.0121475002      0.0121475002
    439.2442932129     80.0000000000      0.0121525005      0.0121525005
    418.9924011230     80.0000000000      0.0093750004      0.0093750004
    418.9084167480     53.3333282471      0.0093625002      0.0093625002
    439.2442932129     80.0000000000      0.0121525005      0.0121525005
    439.3072814941    106.6666717529      0.0121600004      0.0121600004
    419.0763549805    106.6666717529      0.0093874997      0.0093874997
    418.9924011230     80.0000000000      0.0093750004      0.0093750004
    439.3072814941    106.6666717529      0.0121600004      0.0121600004
    439.3702392578    133.3333282471      0.0121674994      0.0121674994
    419.1603393555    133.3333282471      0.0094025005      0.0094025005
    419.0763549805    106.6666717529      0.0093874997      0.0093874997
    439.3702392578    133.3333282471      0.0121674994      0.0121674994
    439.4332275391    160.0000000000      0.0121749993      0.0121749993
    419.2442932129    160.0000000000      0.0094149997      0.0094149997
    419.1603393555    133.3333282471      0.0094025005      0.0094025005
    439.4332275391    160.0000000000      0.0121749993      0.0121749993
    439.4961853027    186.6666717529      0.0121825002      0.0121825002
    419.3282775879    186.6666717529      0.0094275000      0.0094275000
    419.2442932129    160.0000000000      0.0094149997      0.0094149997
    439.4961853027    186.6666717529      0.0121825002      0.0121825002
    439.5591735840    213.3333282471      0.0121874996      0.0121874996
    419.4122314453    213.3333282471      0.0094424998      0.0094424998
    419.3282775879    186.6666717529      0.0094275000      0.0094275000
    439.5591735840    213.3333282471      0.0121874996      0.0121874996
    439.6221618652    240.0000000000      0.0121950004      0.0121950004
    419.4961853027    240.0000000000      0.0094575007      0.0094575007
    419.4122314453    213.3333282471      0.0094424998      0.0094424998
    439.6221618652    240.0000000000      0.0121950004      0.0121950004
    439.6851196289    266.6666564941      0.0122025004      0.0122025004
    419.5801696777    266.6666564941      0.0094699999      0.0094699999
    419.4961853027    240.0000000000      0.0094575007      0.0094575007
    439.6851196289    266.6666564941      0.0122025004      0.0122025004
    439.7481079102    293.3333435059      0.0122074997      0.0122074997
    419.6641235352    293.3333435059      0.0094824992      0.0094824992
    419.5801696777    266.6666564941      0.0094699999      0.0094699999
    439.7481079102    293.3333435059      0.0122074997      0.0122074997
    439.8110656738    320.0000000000      0.0122149996      0.0122149996
    419.7481079102    320.0000000000      0.0094975000      0.0094975000
    419.6641235352    293.3333435059      0.0094824992      0.0094824992
    439.8110656738    320.0000000000      0.0122149996      0.0122149996
    439.8740539551    346.6666564941      0.0122224996      0.0122224996
    419.8320617676    346.6666564941      0.0095124999      0.0095124999
    419.7481079102    320.0000000000      0.0094975000      0.0094975000
    439.8740539551    346.6666564941      0.0122224996      0.0122224996
    439.9370422363    373.3333435059      0.0122299995      0.0122299995
    419.9160156250    373.3333435059      0.0095250001      0.0095250001
    419.8320617676    346.6666564941      0.0095124999      0.0095124999
    439.9370422363    373.3333435059      0.0122299995      0.0122299995
    440.0000000000    400.0000000000      0.0122299995      0.0122299995
    420.0000000000    400.0000000000      0.0095250001      0.0095250001
    419.9160156250    373.3333435059      0.0095250001      0.0095250001
    418.7405090332      0.0000000000      0.0093475003      0.0093475003
    418.8244628906     26.6666698456      0.0093475003      0.0093475003
    398.5305786133     26.6666698456      0.0055324999      0.0055324999
    398.4256286621      0.0000000000      0.0055324999      0.0055324999
    418.8244628906     26.6666698456      0.0093475003      0.0093475003
    418.9084167480     53.3333282471      0.0093625002      0.0093625002
    398.6355285645     53.3333282471      0.0055550002      0.0055550002
    398.5305786133     26.6666698456      0.0055324999      0.0055324999
    418.9084167480     53.3333282471      0.0093625002      0.0093625002
    418.9924011230     80.0000000000      0.0093750004      0.0093750004
    398.7405090332     80.0000000000      0.0055750003      0.0055750003
    398.6355285645     53.3333282471      0.0055550002      0.0055550002
    418.9924011230     80.0000000000      0.0093750004      0.0093750004
    419.0763549805    106.6666717529      0.0093874997      0.0093874997
    398.8454589844    106.6666717529      0.0055950000      0.0055950000
    398.7405090332     80.0000000000      0.0055750003      0.0055750003
    419.0763549805    106.6666717529      0.0093874997      0.0093874997
    419.1603393555    133.3333282471      0.0094025005      0.0094025005
    398.9504089355    133.3333282471      0.0056174998      0.0056174998
    398.8454589844    106.6666717529      0.0055950000      0.0055950000
    419.1603393555    133.3333282471      0.0094025005      0.0094025005
    419.2442932129    160.0000000000      0.0094149997      0.0094149997
    399.0553588867    160.0000000000      0.0056375000      0.0056375000
    398.9504089355    133.3333282471      0.0056174998      0.0056174998
    419.2442932129    160.0000000000      0.0094149997      0.0094149997
    419.3282775879    186.6666717529      0.0094275000      0.0094275000
    399.1603393555    186.6666717529      0.0056575001      0.0056575001
    399.0553588867    160.0000000000      0.0056375000      0.0056375000
    419.3282775879    186.6666717529      0.0094275000      0.0094275000
    419.4122314453    213.3333282471      0.0094424998      0.0094424998
    399.2652893066    213.3333282471      0.0056799999      0.0056799999
    399.1603393555    186.6666717529      0.0056575001      0.0056575001
    419.4122314453    213.3333282471      0.0094424998      0.0094424998
    419.4961853027    240.0000000000      0.0094575007      0.0094575007
    399.3702392578    240.0000000000      0.0057024998      0.0057024998
    399.2652893066    213.3333282471      0.0056799999      0.0056799999
    419.4961853027    240.0000000000      0.0094575007      0.0094575007
    419.5801696777    266.6666564941      0.0094699999      0.0094699999
    399.4752197266    266.6666564941      0.0057224999      0.0057224999
    399.3702392578    240.0000000000      0.0057024998      0.0057024998
    419.5801696777    266.6666564941      0.0094699999      0.0094699999
    419.6641235352    293.3333435059      0.0094824992      0.0094824992
    399.5801696777    293.3333435059      0.0057425001      0.0057425001
    399.4752197266    266.6666564941      0.0057224999      0.0057224999
    419.6641235352    293.3333435059      0.0094824992      0.0094824992
    419.7481079102    320.0000000000      0.0094975000      0.0094975000
    399.6851196289    320.0000000000      0.0057649999      0.0057649999
    399.5801696777    293.3333435059      0.0057425001      0.0057425001
    419.7481079102    320.0000000000      0.0094975000      0.0094975000
    419.8320617676    346.6666564941      0.0095124999      0.0095124999
    399.7900695801    346.6666564941      0.0057874992      0.0057874992
    399.6851196289    320.0000000000      0.0057649999      0.0057649999
    419.8320617676    346.6666564941      0.0095124999      0.0095124999
    419.9160156250    373.3333435059      0.0095250001      0.0095250001
    399.8950500488    373.3333435059      0.0058075003      0.0058075003
    399.7900695801    346.6666564941      0.0057874992      0.0057874992
    419.9160156250    373.3333435059      0.0095250001      0.0095250001
    420.0000000000    400.0000000000      0.0095250001      0.0095250001
    400.0000000000    400.0000000000      0.0058075003      0.0058075003
    399.8950500488    373.3333435059      0.0058075003      0.0058075003
    398.4256286621      0.0000000000      0.0055324999      0.0055324999
    398.5305786133     26.6666698456      0.0055324999      0.0055324999
    378.2366943359     26.6666698456      0.0011150001      0.0011150001
    378.1107482910      0.0000000000      0.0011150001      0.0011150001
    398.5305786133     26.6666698456      0.0055324999      0.0055324999
    398.6355285645     53.3333282471      0.0055550002      0.0055550002
    378.3626403809     53.3333282471      0.0011425001      0.0011425001
    378.2366943359     26.6666698456      0.0011150001      0.0011150001
    398.6355285645     53.3333282471      0.0055550002      0.0055550002
    398.7405090332     80.0000000000      0.0055750003      0.0055750003
    378.4885864258     80.0000000000      0.0011700001      0.0011700001
    378.3626403809     53.3333282471      0.0011425001      0.0011425001
    398.7405090332     80.0000000000      0.0055750003      0.0055750003
    398.8454589844    106.6666717529      0.0055950000      0.0055950000
    378.6145629883    106.6666717529      0.0011975000      0.0011975000
    378.4885864258     80.0000000000      0.0011700001      0.0011700001
    398.8454589844    106.6666717529      0.0055950000      0.0055950000
    398.9504089355    133.3333282471      0.0056174998      0.0056174998
    378.7405090332    133.3333282471      0.0012250000      0.0012250000
    378.6145629883    106.6666717529      0.0011975000      0.0011975000
    398.9504089355    133.3333282471      0.0056174998      0.0056174998
    399.0553588867    160.0000000000      0.0056375000      0.0056375000
    378.8664550781    160.0000000000      0.0012525000      0.0012525000
    378.7405090332    133.3333282471      0.0012250000      0.0012250000
    399.0553588867    160.0000000000      0.0056375000      0.0056375000
    399.1603393555    186.6666717529      0.0056575001      0.0056575001
    378.9924011230    186.6666717529      0.0012800000      0.0012800000
    378.8664550781    160.0000000000      0.0012525000      0.0012525000
    399.1603393555    186.6666717529      0.0056575001      0.0056575001
    399.2652893066    213.3333282471      0.0056799999      0.0056799999
    379.1183471680    213.3333282471      0.0013074999      0.0013074999
    378.9924011230    186.6666717529      0.0012800000      0.0012800000
    399.2652893066    213.3333282471      0.0056799999      0.0056799999
    399.3702392578    240.0000000000      0.0057024998      0.0057024998
    379.2442932129    240.0000000000      0.0013349999      0.0013349999
    379.1183471680    213.3333282471      0.0013074999      0.0013074999
    399.3702392578    240.0000000000      0.0057024998      0.0057024998
    399.4752197266    266.6666564941      0.0057224999      0.0057224999
    379.3702392578    266.6666564941      0.0013625000      0.0013625000
    379.2442932129    240.0000000000      0.0013349999      0.0013349999
    399.4752197266    266.6666564941      0.0057224999      0.0057224999
    399.5801696777    293.3333435059      0.0057425001      0.0057425001
    379.4961853027    293.3333435059      0.0013900001      0.0013900001
    379.3702392578    266.6666564941      0.0013625000      0.0013625000
    399.5801696777    293.3333435059      0.0057425001      0.0057425001
    399.6851196289    320.0000000000      0.0057649999      0.0057649999
    379.6221618652    320.0000000000      0.0014175001      0.0014175001
    379.4961853027    293.3333435059      0.0013900001      0.0013900001
    399.6851196289    320.0000000000      0.0057649999      0.0057649999
    399.7900695801    346.6666564941      0.0057874992      0.0057874992
    379.7481079102    346.6666564941      0.0014450001      0.0014450001
    379.6221618652    320.0000000000      0.0014175001      0.0014175001
    399.7900695801    346.6666564941      0.0057874992      0.0057874992
    399.8950500488    373.3333435059      0.0058075003      0.0058075003
    379.8740539551    373.3333435059      0.0014725000      0.0014725000
    379.7481079102    346.6666564941      0.0014450001      0.0014450001
    399.8950500488    373.3333435059      0.0058075003      0.0058075003
    400.0000000000    400.0000000000      0.0058075003      0.0058075003
    380.0000000000    400.0000000000      0.0014725000      0.0014725000
    379.8740539551    373.3333435059      0.0014725000      0.0014725000
    378.1107482910      0.0000000000      0.0011150001      0.0011150001
    378.2366943359     26.6666698456      0.0011150001      0.0011150001
    357.9428100586     26.6666698456     -0.0034200000     -0.0034200000
    357.7958679199      0.0000000000     -0.0034200000     -0.0034200000
    378.2366943359     26.6666698456      0.0011150001      0.0011150001
    378.3626403809     53.3333282471      0.0011425001      0.0011425001
    358.0897521973     53.3333282471     -0.0033900002     -0.0033900002
    357.9428100586     26.6666698456     -0.0034200000     -0.0034200000
    378.3626403809     53.3333282471      0.0011425001      0.0011425001
    378.4885864258     80.0000000000      0.0011700001      0.0011700001
    358.2366943359     80.0000000000     -0.0033600000     -0.0033600000
    358.0897521973     53.3333282471     -0.0033900002     -0.0033900002
    378.4885864258     80.0000000000      0.0011700001      0.0011700001
    378.6145629883    106.6666717529      0.0011975000      0.0011975000
    358.3836364746    106.6666717529     -0.0033300000     -0.0033300000
    358.2366943359     80.0000000000     -0.0033600000     -0.0033600000
    378.6145629883    106.6666717529      0.0011975000      0.0011975000
    378.7405090332    133.3333282471      0.0012250000      0.0012250000
    358.5305786133    133.3333282471     -0.0033000000     -0.0033000000
    358.3836364746    106.6666717529     -0.0033300000     -0.0033300000
    378.7405090332    133.3333282471      0.0012250000      0.0012250000
    378.8664550781    160.0000000000      0.0012525000      0.0012525000
    358.6775207520    160.0000000000     -0.0032700000     -0.0032700000
    358.5305786133    133.3333282471     -0.0033000000     -0.0033000000
    378.8664550781    160.0000000000      0.0012525000      0.0012525000
    378.9924011230    186.6666717529      0.0012800000      0.0012800000
    358.8244628906    186.6666717529     -0.0032400000     -0.0032400000
    358.6775207520    160.0000000000     -0.0032700000     -0.0032700000
    378.9924011230    186.6666717529      0.0012800000      0.0012800000
    379.1183471680    213.3333282471      0.0013074999      0.0013074999
    358.9714050293    213.3333282471     -0.0032100000     -0.0032100000
    358.8244628906    186.6666717529     -0.0032400000     -0.0032400000
    379.1183471680    213.3333282471      0.0013074999      0.0013074999
    379.2442932129    240.0000000000      0.0013349999      0.0013349999
    359.1183471680    240.0000000000     -0.0031774999     -0.0031774999
    358.9714050293    213.3333282471     -0.0032100000     -0.0032100000
    379.2442932129    240.0000000000      0.0013349999      0.0013349999
    379.3702392578    266.6666564941      0.0013625000      0.0013625000
    359.2652893066    266.6666564941     -0.0031450000     -0.0031450000
    359.1183471680    240.0000000000     -0.0031774999     -0.0031774999
    379.3702392578    266.6666564941      0.0013625000      0.0013625000
    379.4961853027    293.3333435059      0.0013900001      0.0013900001
    359.4122314453    293.3333435059     -0.0031150000     -0.0031150000
    359.2652893066    266.6666564941     -0.0031450000     -0.0031450000
    379.4961853027    293.3333435059      0.0013900001      0.0013900001
    379.6221618652    320.0000000000      0.0014175001      0.0014175001
    359.5591735840    320.0000000000     -0.0030824998     -0.0030824998
    359.4122314453    293.3333435059     -0.0031150000     -0.0031150000