 VARIABLES= "X","Y","Z","yita"  
ZONE N=                                        3000 E=                              750 F=FEPOINT, ET=QUADRILATERAL
    500.0000000000      0.0000000000     -8.7530155182     -8.7530155182
    500.0000000000     26.6666698456     -8.7530155182     -8.7530155182
    479.7061157227     26.6666698456     -8.7530155182     -8.7530155182
    479.6851196289      0.0000000000     -8.7530155182     -8.7530155182
    500.0000000000     26.6666698456     -8.7530155182     -8.7530155182
    500.0000000000     53.3333282471     -8.7550849915     -8.7550849915
    479.7271118164     53.3333282471     -8.7550849915     -8.7550849915
    479.7061157227     26.6666698456     -8.7530155182     -8.7530155182
    500.0000000000     53.3333282471     -8.7550849915     -8.7550849915
    500.0000000000     80.0000000000     -8.7557229996     -8.7557229996
    479.7481079102     80.0000000000     -8.7557229996     -8.7557229996
    479.7271118164     53.3333282471     -8.7550849915     -8.7550849915
    500.0000000000     80.0000000000     -8.7557229996     -8.7557229996
    500.0000000000    106.6666717529     -8.7566204071     -8.7566204071
    479.7691040039    106.6666717529     -8.7566204071     -8.7566204071
    479.7481079102     80.0000000000     -8.7557229996     -8.7557229996
    500.0000000000    106.6666717529     -8.7566204071     -8.7566204071
    500.0000000000    133.3333282471     -8.7593994141     -8.7593994141
    479.7900695801    133.3333282471     -8.7593994141     -8.7593994141
    479.7691040039    106.6666717529     -8.7566204071     -8.7566204071
    500.0000000000    133.3333282471     -8.7593994141     -8.7593994141
    500.0000000000    160.0000000000     -8.7613248825     -8.7613248825
    479.8110656738    160.0000000000     -8.7613248825     -8.7613248825
    479.7900695801    133.3333282471     -8.7593994141     -8.7593994141
    500.0000000000    160.0000000000     -8.7613248825     -8.7613248825
    500.0000000000    186.6666717529     -8.7630252838     -8.7630252838
    479.8320617676    186.6666717529     -8.7630252838     -8.7630252838
    479.8110656738    160.0000000000     -8.7613248825     -8.7613248825
    500.0000000000    186.6666717529     -8.7630252838     -8.7630252838
    500.0000000000    213.3333282471     -8.7655477524     -8.7655477524
    479.8530578613    213.3333282471     -8.7655477524     -8.7655477524
    479.8320617676    186.6666717529     -8.7630252838     -8.7630252838
    500.0000000000    213.3333282471     -8.7655477524     -8.7655477524
    500.0000000000    240.0000000000     -8.7683572769     -8.7683572769
    479.8740539551    240.0000000000     -8.7683572769     -8.7683572769
    479.8530578613    213.3333282471     -8.7655477524     -8.7655477524
    500.0000000000    240.0000000000     -8.7683572769     -8.7683572769
    500.0000000000    266.6666564941     -8.7710571289     -8.7710571289
    479.8950500488    266.6666564941     -8.7710571289     -8.7710571289
    479.8740539551    240.0000000000     -8.7683572769     -8.7683572769
    500.0000000000    266.6666564941     -8.7710571289     -8.7710571289
    500.0000000000    293.3333435059     -8.7733154297     -8.7733154297
    479.9160156250    293.3333435059     -8.7733154297     -8.7733154297
    479.8950500488    266.6666564941     -8.7710571289     -8.7710571289
    500.0000000000    293.3333435059     -8.7733154297     -8.7733154297
    500.0000000000    320.0000000000     -8.7756853104     -8.7756853104
    479.9370422363    320.0000000000     -8.7756853104     -8.7756853104
    479.9160156250    293.3333435059     -8.7733154297     -8.7733154297
    500.0000000000    320.0000000000     -8.7756853104     -8.7756853104
    500.0000000000    346.6666564941     -8.7779579163     -8.7779579163
    479.9580078125    346.6666564941     -8.7779579163     -8.7779579163
    479.9370422363    320.0000000000     -8.7756853104     -8.7756853104
    500.0000000000    346.6666564941     -8.7779579163     -8.7779579163
    500.0000000000    373.3333435059     -8.7798442841     -8.7798442841
    479.9790039062    373.3333435059     -8.7798442841     -8.7798442841
    479.9580078125    346.6666564941     -8.7779579163     -8.7779579163
    500.0000000000    373.3333435059     -8.7798442841     -8.7798442841
    500.0000000000    400.0000000000     -8.7798442841     -8.7798442841
    480.0000000000    400.0000000000     -8.7798442841     -8.7798442841
    479.9790039062    373.3333435059     -8.7798442841     -8.7798442841
    479.6851196289      0.0000000000     -8.7530155182     -8.7530155182
    479.7061157227     26.6666698456     -8.7530155182     -8.7530155182
    459.4122314453     26.6666698456     -7.3343172073     -7.3343172073
    459.3702392578      0.0000000000     -7.3343172073     -7.3343172073
    479.7061157227     26.6666698456     -8.7530155182     -8.7530155182
    479.7271118164     53.3333282471     -8.7550849915     -8.7550849915
    459.4542236328     53.3333282471     -7.3366575241     -7.3366575241
    459.4122314453     26.6666698456     -7.3343172073     -7.3343172073
    479.7271118164     53.3333282471     -8.7550849915     -8.7550849915
    479.7481079102     80.0000000000     -8.7557229996     -8.7557229996
    459.4961853027     80.0000000000     -7.3383803368     -7.3383803368
    459.4542236328     53.3333282471     -7.3366575241     -7.3366575241
    479.7481079102     80.0000000000     -8.7557229996     -8.7557229996
    479.7691040039    106.6666717529     -8.7566204071     -8.7566204071
    459.5381774902    106.6666717529     -7.3405103683     -7.3405103683
    459.4961853027     80.0000000000     -7.3383803368     -7.3383803368
    479.7691040039    106.6666717529     -8.7566204071     -8.7566204071
    479.7900695801    133.3333282471     -8.7593994141     -8.7593994141
    459.5801696777    133.3333282471     -7.3441452980     -7.3441452980
    459.5381774902    106.6666717529     -7.3405103683     -7.3405103683
    479.7900695801    133.3333282471     -8.7593994141     -8.7593994141
    479.8110656738    160.0000000000     -8.7613248825     -8.7613248825
    459.6221618652    160.0000000000     -7.3496799469     -7.3496799469
    459.5801696777    133.3333282471     -7.3441452980     -7.3441452980
    479.8110656738    160.0000000000     -8.7613248825     -8.7613248825
    479.8320617676    186.6666717529     -8.7630252838     -8.7630252838
    459.6641235352    186.6666717529     -7.3565673828     -7.3565673828
    459.6221618652    160.0000000000     -7.3496799469     -7.3496799469
    479.8320617676    186.6666717529     -8.7630252838     -8.7630252838
    479.8530578613    213.3333282471     -8.7655477524     -8.7655477524
    459.7061157227    213.3333282471     -7.3635873795     -7.3635873795
    459.6641235352    186.6666717529     -7.3565673828     -7.3565673828
    479.8530578613    213.3333282471     -8.7655477524     -8.7655477524
    479.8740539551    240.0000000000     -8.7683572769     -8.7683572769
    459.7481079102    240.0000000000     -7.3697223663     -7.3697223663
    459.7061157227    213.3333282471     -7.3635873795     -7.3635873795
    479.8740539551    240.0000000000     -8.7683572769     -8.7683572769
    479.8950500488    266.6666564941     -8.7710571289     -8.7710571289
    459.7900695801    266.6666564941     -7.3749580383     -7.3749580383
    459.7481079102    240.0000000000     -7.3697223663     -7.3697223663
    479.8950500488    266.6666564941     -8.7710571289     -8.7710571289
    479.9160156250    293.3333435059     -8.7733154297     -8.7733154297
    459.8320617676    293.3333435059     -7.3798451424     -7.3798451424
    459.7900695801    266.6666564941     -7.3749580383     -7.3749580383
    479.9160156250    293.3333435059     -8.7733154297     -8.7733154297
    479.9370422363    320.0000000000     -8.7756853104     -8.7756853104
    459.8740539551    320.0000000000     -7.3846974373     -7.3846974373
    459.8320617676    293.3333435059     -7.3798451424     -7.3798451424
    479.9370422363    320.0000000000     -8.7756853104     -8.7756853104
    479.9580078125    346.6666564941     -8.7779579163     -8.7779579163
    459.9160156250    346.6666564941     -7.3894872665     -7.3894872665
    459.8740539551    320.0000000000     -7.3846974373     -7.3846974373
    479.9580078125    346.6666564941     -8.7779579163     -8.7779579163
    479.9790039062    373.3333435059     -8.7798442841     -8.7798442841
    459.9580078125    373.3333435059     -7.3941326141     -7.3941326141
    459.9160156250    346.6666564941     -7.3894872665     -7.3894872665
    479.9790039062    373.3333435059     -8.7798442841     -8.7798442841
    480.0000000000    400.0000000000     -8.7798442841     -8.7798442841
    460.0000000000    400.0000000000     -7.3941326141     -7.3941326141
    459.9580078125    373.3333435059     -7.3941326141     -7.3941326141
    459.3702392578      0.0000000000     -7.3343172073     -7.3343172073
    459.4122314453     26.6666698456     -7.3343172073     -7.3343172073
    439.1183471680     26.6666698456     -5.0952277184     -5.0952277184
    439.0553588867      0.0000000000     -5.0952277184     -5.0952277184
    459.4122314453     26.6666698456     -7.3343172073     -7.3343172073
    459.4542236328     53.3333282471     -7.3366575241     -7.3366575241
    439.1813049316     53.3333282471     -5.1115198135     -5.1115198135
    439.1183471680     26.6666698456     -5.0952277184     -5.0952277184
    459.4542236328     53.3333282471     -7.3366575241     -7.3366575241
    459.4961853027     80.0000000000     -7.3383803368     -7.3383803368
    439.2442932129     80.0000000000     -5.1304349899     -5.1304349899
    439.1813049316     53.3333282471     -5.1115198135     -5.1115198135
    459.4961853027     80.0000000000     -7.3383803368     -7.3383803368
    459.5381774902    106.6666717529     -7.3405103683     -7.3405103683
    439.3072814941    106.6666717529     -5.1477451324     -5.1477451324
    439.2442932129     80.0000000000     -5.1304349899     -5.1304349899
    459.5381774902    106.6666717529     -7.3405103683     -7.3405103683
    459.5801696777    133.3333282471     -7.3441452980     -7.3441452980
    439.3702392578    133.3333282471     -5.1591501236     -5.1591501236
    439.3072814941    106.6666717529     -5.1477451324     -5.1477451324
    459.5801696777    133.3333282471     -7.3441452980     -7.3441452980
    459.6221618652    160.0000000000     -7.3496799469     -7.3496799469
    439.4332275391    160.0000000000     -5.1633901596     -5.1633901596
    439.3702392578    133.3333282471     -5.1591501236     -5.1591501236
    459.6221618652    160.0000000000     -7.3496799469     -7.3496799469
    459.6641235352    186.6666717529     -7.3565673828     -7.3565673828
    439.4961853027    186.6666717529     -5.1638798714     -5.1638798714
    439.4332275391    160.0000000000     -5.1633901596     -5.1633901596
    459.6641235352    186.6666717529     -7.3565673828     -7.3565673828
    459.7061157227    213.3333282471     -7.3635873795     -7.3635873795
    439.5591735840    213.3333282471     -5.1665897369     -5.1665897369
    439.4961853027    186.6666717529     -5.1638798714     -5.1638798714
    459.7061157227    213.3333282471     -7.3635873795     -7.3635873795
    459.7481079102    240.0000000000     -7.3697223663     -7.3697223663
    439.6221618652    240.0000000000     -5.1747574806     -5.1747574806
    439.5591735840    213.3333282471     -5.1665897369     -5.1665897369
    459.7481079102    240.0000000000     -7.3697223663     -7.3697223663
    459.7900695801    266.6666564941     -7.3749580383     -7.3749580383
    439.6851196289    266.6666564941     -5.1859602928     -5.1859602928
    439.6221618652    240.0000000000     -5.1747574806     -5.1747574806
    459.7900695801    266.6666564941     -7.3749580383     -7.3749580383
    459.8320617676    293.3333435059     -7.3798451424     -7.3798451424
    439.7481079102    293.3333435059     -5.1963648796     -5.1963648796
    439.6851196289    266.6666564941     -5.1859602928     -5.1859602928
    459.8320617676    293.3333435059     -7.3798451424     -7.3798451424
    459.8740539551    320.0000000000     -7.3846974373     -7.3846974373
    439.8110656738    320.0000000000     -5.2051849365     -5.2051849365
    439.7481079102    293.3333435059     -5.1963648796     -5.1963648796
    459.8740539551    320.0000000000     -7.3846974373     -7.3846974373
    459.9160156250    346.6666564941     -7.3894872665     -7.3894872665
    439.8740539551    346.6666564941     -5.2134900093     -5.2134900093
    439.8110656738    320.0000000000     -5.2051849365     -5.2051849365
    459.9160156250    346.6666564941     -7.3894872665     -7.3894872665
    459.9580078125    373.3333435059     -7.3941326141     -7.3941326141
    439.9370422363    373.3333435059     -5.2218422890     -5.2218422890
    439.8740539551    346.6666564941     -5.2134900093     -5.2134900093
    459.9580078125    373.3333435059     -7.3941326141     -7.3941326141
    460.0000000000    400.0000000000     -7.3941326141     -7.3941326141
    440.0000000000    400.0000000000     -5.2218422890     -5.2218422890
    439.9370422363    373.3333435059     -5.2218422890     -5.2218422890
    439.0553588867      0.0000000000     -5.0952277184     -5.0952277184
    439.1183471680     26.6666698456     -5.0952277184     -5.0952277184
    418.8244628906     26.6666698456     -2.5547499657     -2.5547499657
    418.7405090332      0.0000000000     -2.5547499657     -2.5547499657
    439.1183471680     26.6666698456     -5.0952277184     -5.0952277184
    439.1813049316     53.3333282471     -5.1115198135     -5.1115198135
    418.9084167480     53.3333282471     -2.4660201073     -2.4660201073
    418.8244628906     26.6666698456     -2.5547499657     -2.5547499657
    439.1813049316     53.3333282471     -5.1115198135     -5.1115198135
    439.2442932129     80.0000000000     -5.1304349899     -5.1304349899
    418.9924011230     80.0000000000     -2.3403873444     -2.3403873444
    418.9084167480     53.3333282471     -2.4660201073     -2.4660201073
    439.2442932129     80.0000000000     -5.1304349899     -5.1304349899
    439.3072814941    106.6666717529     -5.1477451324     -5.1477451324
    419.0763549805    106.6666717529     -2.2268800735     -2.2268800735
    418.9924011230     80.0000000000     -2.3403873444     -2.3403873444
    439.3072814941    106.6666717529     -5.1477451324     -5.1477451324
    439.3702392578    133.3333282471     -5.1591501236     -5.1591501236
    419.1603393555    133.3333282471     -2.1809074879     -2.1809074879
    419.0763549805    106.6666717529     -2.2268800735     -2.2268800735
    439.3702392578    133.3333282471     -5.1591501236     -5.1591501236
    439.4332275391    160.0000000000     -5.1633901596     -5.1633901596
    419.2442932129    160.0000000000     -2.2264099121     -2.2264099121
    419.1603393555    133.3333282471     -2.1809074879     -2.1809074879
    439.4332275391    160.0000000000     -5.1633901596     -5.1633901596
    439.4961853027    186.6666717529     -5.1638798714     -5.1638798714
    419.3282775879    186.6666717529     -2.3311774731     -2.3311774731
    419.2442932129    160.0000000000     -2.2264099121     -2.2264099121
    439.4961853027    186.6666717529     -5.1638798714     -5.1638798714
    439.5591735840    213.3333282471     -5.1665897369     -5.1665897369
    419.4122314453    213.3333282471     -2.4251599312     -2.4251599312
    419.3282775879    186.6666717529     -2.3311774731     -2.3311774731
    439.5591735840    213.3333282471     -5.1665897369     -5.1665897369
    439.6221618652    240.0000000000     -5.1747574806     -5.1747574806
    419.4961853027    240.0000000000     -2.4613499641     -2.4613499641
    419.4122314453    213.3333282471     -2.4251599312     -2.4251599312
    439.6221618652    240.0000000000     -5.1747574806     -5.1747574806
    439.6851196289    266.6666564941     -5.1859602928     -5.1859602928
    419.5801696777    266.6666564941     -2.4573600292     -2.4573600292
    419.4961853027    240.0000000000     -2.4613499641     -2.4613499641
    439.6851196289    266.6666564941     -5.1859602928     -5.1859602928
    439.7481079102    293.3333435059     -5.1963648796     -5.1963648796
    419.6641235352    293.3333435059     -2.4543375969     -2.4543375969
    419.5801696777    266.6666564941     -2.4573600292     -2.4573600292
    439.7481079102    293.3333435059     -5.1963648796     -5.1963648796
    439.8110656738    320.0000000000     -5.2051849365     -5.2051849365
    419.7481079102    320.0000000000     -2.4646725655     -2.4646725655
    419.6641235352    293.3333435059     -2.4543375969     -2.4543375969
    439.8110656738    320.0000000000     -5.2051849365     -5.2051849365
    439.8740539551    346.6666564941     -5.2134900093     -5.2134900093
    419.8320617676    346.6666564941     -2.4794726372     -2.4794726372
    419.7481079102    320.0000000000     -2.4646725655     -2.4646725655
    439.8740539551    346.6666564941     -5.2134900093     -5.2134900093
    439.9370422363    373.3333435059     -5.2218422890     -5.2218422890
    419.9160156250    373.3333435059     -2.4930448532     -2.4930448532
    419.8320617676    346.6666564941     -2.4794726372     -2.4794726372
    439.9370422363    373.3333435059     -5.2218422890     -5.2218422890
    440.0000000000    400.0000000000     -5.2218422890     -5.2218422890
    420.0000000000    400.0000000000     -2.4930448532     -2.4930448532
    419.9160156250    373.3333435059     -2.4930448532     -2.4930448532
    418.7405090332      0.0000000000     -2.5547499657     -2.5547499657
    418.8244628906     26.6666698456     -2.5547499657     -2.5547499657
    398.5305786133     26.6666698456     -0.4689224958     -0.4689224958
    398.4256286621      0.0000000000     -0.4689224958     -0.4689224958
    418.8244628906     26.6666698456     -2.5547499657     -2.5547499657
    418.9084167480     53.3333282471     -2.4660201073     -2.4660201073
    398.6355285645     53.3333282471     -0.2815700173     -0.2815700173
    398.5305786133     26.6666698456     -0.4689224958     -0.4689224958
    418.9084167480     53.3333282471     -2.4660201073     -2.4660201073
    418.9924011230     80.0000000000     -2.3403873444     -2.3403873444
    398.7405090332     80.0000000000      0.0549825132      0.0549825132
    398.6355285645     53.3333282471     -0.2815700173     -0.2815700173
    418.9924011230     80.0000000000     -2.3403873444     -2.3403873444
    419.0763549805    106.6666717529     -2.2268800735     -2.2268800735
    398.8454589844    106.6666717529      0.4858675301      0.4858675301
    398.7405090332     80.0000000000      0.0549825132      0.0549825132
    419.0763549805    106.6666717529     -2.2268800735     -2.2268800735
    419.1603393555    133.3333282471     -2.1809074879     -2.1809074879
    398.9504089355    133.3333282471      0.8660374880      0.8660374880
    398.8454589844    106.6666717529      0.4858675301      0.4858675301
    419.1603393555    133.3333282471     -2.1809074879     -2.1809074879
    419.2442932129    160.0000000000     -2.2264099121     -2.2264099121
    399.0553588867    160.0000000000      1.0329400301      1.0329400301
    398.9504089355    133.3333282471      0.8660374880      0.8660374880
    419.2442932129    160.0000000000     -2.2264099121     -2.2264099121
    419.3282775879    186.6666717529     -2.3311774731     -2.3311774731
    399.1603393555    186.6666717529      0.9365675449      0.9365675449
    399.0553588867    160.0000000000      1.0329400301      1.0329400301
    419.3282775879    186.6666717529     -2.3311774731     -2.3311774731
    419.4122314453    213.3333282471     -2.4251599312     -2.4251599312
    399.2652893066    213.3333282471      0.7026075125      0.7026075125
    399.1603393555    186.6666717529      0.9365675449      0.9365675449
    419.4122314453    213.3333282471     -2.4251599312     -2.4251599312
    419.4961853027    240.0000000000     -2.4613499641     -2.4613499641
    399.3702392578    240.0000000000      0.5334025621      0.5334025621
    399.2652893066    213.3333282471      0.7026075125      0.7026075125
    419.4961853027    240.0000000000     -2.4613499641     -2.4613499641
    419.5801696777    266.6666564941     -2.4573600292     -2.4573600292
    399.4752197266    266.6666564941      0.5042650104      0.5042650104
    399.3702392578    240.0000000000      0.5334025621      0.5334025621
    419.5801696777    266.6666564941     -2.4573600292     -2.4573600292
    419.6641235352    293.3333435059     -2.4543375969     -2.4543375969
    399.5801696777    293.3333435059      0.5326724648      0.5326724648
    399.4752197266    266.6666564941      0.5042650104      0.5042650104
    419.6641235352    293.3333435059     -2.4543375969     -2.4543375969
    419.7481079102    320.0000000000     -2.4646725655     -2.4646725655
    399.6851196289    320.0000000000      0.5394924879      0.5394924879
    399.5801696777    293.3333435059      0.5326724648      0.5326724648
    419.7481079102    320.0000000000     -2.4646725655     -2.4646725655
    419.8320617676    346.6666564941     -2.4794726372     -2.4794726372
    399.7900695801    346.6666564941      0.5224999785      0.5224999785
    399.6851196289    320.0000000000      0.5394924879      0.5394924879
    419.8320617676    346.6666564941     -2.4794726372     -2.4794726372
    419.9160156250    373.3333435059     -2.4930448532     -2.4930448532
    399.8950500488    373.3333435059      0.5023524761      0.5023524761
    399.7900695801    346.6666564941      0.5224999785      0.5224999785
    419.9160156250    373.3333435059     -2.4930448532     -2.4930448532
    420.0000000000    400.0000000000     -2.4930448532     -2.4930448532
    400.0000000000    400.0000000000      0.5023524761      0.5023524761
    399.8950500488    373.3333435059      0.5023524761      0.5023524761
    398.4256286621      0.0000000000     -0.4689224958     -0.4689224958
    398.5305786133     26.6666698456     -0.4689224958     -0.4689224958
    378.2366943359     26.6666698456      2.9828925133      2.9828925133
    378.1107482910      0.0000000000      2.9828925133      2.9828925133
    398.5305786133     26.6666698456     -0.4689224958     -0.4689224958
    398.6355285645     53.3333282471     -0.2815700173     -0.2815700173
    378.3626403809     53.3333282471      2.7426977158      2.7426977158
    378.2366943359     26.6666698456      2.9828925133      2.9828925133
    398.6355285645     53.3333282471     -0.2815700173     -0.2815700173
    398.7405090332     80.0000000000      0.0549825132      0.0549825132
    378.4885864258     80.0000000000      2.5433526039      2.5433526039
    378.3626403809     53.3333282471      2.7426977158      2.7426977158
    398.7405090332     80.0000000000      0.0549825132      0.0549825132
    398.8454589844    106.6666717529      0.4858675301      0.4858675301
    378.6145629883    106.6666717529      2.5725300312      2.5725300312
    378.4885864258     80.0000000000      2.5433526039      2.5433526039
    398.8454589844    106.6666717529      0.4858675301      0.4858675301
    398.9504089355    133.3333282471      0.8660374880      0.8660374880
    378.7405090332    133.3333282471      2.9063198566      2.9063198566
    378.6145629883    106.6666717529      2.5725300312      2.5725300312
    398.9504089355    133.3333282471      0.8660374880      0.8660374880
    399.0553588867    160.0000000000      1.0329400301      1.0329400301
    378.8664550781    160.0000000000      3.4012625217      3.4012625217
    378.7405090332    133.3333282471      2.9063198566      2.9063198566
    399.0553588867    160.0000000000      1.0329400301      1.0329400301
    399.1603393555    186.6666717529      0.9365675449      0.9365675449
    378.9924011230    186.6666717529      3.7703049183      3.7703049183
    378.8664550781    160.0000000000      3.4012625217      3.4012625217
    399.1603393555    186.6666717529      0.9365675449      0.9365675449
    399.2652893066    213.3333282471      0.7026075125      0.7026075125
    379.1183471680    213.3333282471      3.8192026615      3.8192026615
    378.9924011230    186.6666717529      3.7703049183      3.7703049183
    399.2652893066    213.3333282471      0.7026075125      0.7026075125
    399.3702392578    240.0000000000      0.5334025621      0.5334025621
    379.2442932129    240.0000000000      3.6389527321      3.6389527321
    379.1183471680    213.3333282471      3.8192026615      3.8192026615
    399.3702392578    240.0000000000      0.5334025621      0.5334025621
    399.4752197266    266.6666564941      0.5042650104      0.5042650104
    379.3702392578    266.6666564941      3.4808750153      3.4808750153
    379.2442932129    240.0000000000      3.6389527321      3.6389527321
    399.4752197266    266.6666564941      0.5042650104      0.5042650104
    399.5801696777    293.3333435059      0.5326724648      0.5326724648
    379.4961853027    293.3333435059      3.4479100704      3.4479100704
    379.3702392578    266.6666564941      3.4808750153      3.4808750153
    399.5801696777    293.3333435059      0.5326724648      0.5326724648
    399.6851196289    320.0000000000      0.5394924879      0.5394924879
    379.6221618652    320.0000000000      3.4644351006      3.4644351006
    379.4961853027    293.3333435059      3.4479100704      3.4479100704
    399.6851196289    320.0000000000      0.5394924879      0.5394924879
    399.7900695801    346.6666564941      0.5224999785      0.5224999785
    379.7481079102    346.6666564941      3.4625601768      3.4625601768
    379.6221618652    320.0000000000      3.4644351006      3.4644351006
    399.7900695801    346.6666564941      0.5224999785      0.5224999785
    399.8950500488    373.3333435059      0.5023524761      0.5023524761
    379.8740539551    373.3333435059      3.4435548782      3.4435548782
    379.7481079102    346.6666564941      3.4625601768      3.4625601768
    399.8950500488    373.3333435059      0.5023524761      0.5023524761
    400.0000000000    400.0000000000      0.5023524761      0.5023524761
    380.0000000000    400.0000000000      3.4435548782      3.4435548782
    379.8740539551    373.3333435059      3.4435548782      3.4435548782
    378.1107482910      0.0000000000      2.9828925133      2.9828925133
    378.2366943359     26.6666698456      2.9828925133      2.9828925133
    357.9428100586     26.6666698456      8.4862232208      8.4862232208
    357.7958679199      0.0000000000      8.4862232208      8.4862232208
    378.2366943359     26.6666698456      2.9828925133      2.9828925133
    378.3626403809     53.3333282471      2.7426977158      2.7426977158
    358.0897521973     53.3333282471      7.9726476669      7.9726476669
    357.9428100586     26.6666698456      8.4862232208      8.4862232208
    378.3626403809     53.3333282471      2.7426977158      2.7426977158
    378.4885864258     80.0000000000      2.5433526039      2.5433526039
    358.2366943359     80.0000000000      7.1332998276      7.1332998276
    358.0897521973     53.3333282471      7.9726476669      7.9726476669
    378.4885864258     80.0000000000      2.5433526039      2.5433526039
    378.6145629883    106.6666717529      2.5725300312      2.5725300312
    358.3836364746    106.6666717529      6.1563248634      6.1563248634
    358.2366943359     80.0000000000      7.1332998276      7.1332998276
    378.6145629883    106.6666717529      2.5725300312      2.5725300312
    378.7405090332    133.3333282471      2.9063198566      2.9063198566
    358.5305786133    133.3333282471      5.4195127487      5.4195127487
    358.3836364746    106.6666717529      6.1563248634      6.1563248634
    378.7405090332    133.3333282471      2.9063198566      2.9063198566
    378.8664550781    160.0000000000      3.4012625217      3.4012625217
    358.6775207520    160.0000000000      5.2456274033      5.2456274033
    358.5305786133    133.3333282471      5.4195127487      5.4195127487
    378.8664550781    160.0000000000      3.4012625217      3.4012625217
    378.9924011230    186.6666717529      3.7703049183      3.7703049183
    358.8244628906    186.6666717529      5.5995974541      5.5995974541
    358.6775207520    160.0000000000      5.2456274033      5.2456274033
    378.9924011230    186.6666717529      3.7703049183      3.7703049183
    379.1183471680    213.3333282471      3.8192026615      3.8192026615
    358.9714050293    213.3333282471      6.0745773315      6.0745773315
    358.8244628906    186.6666717529      5.5995974541      5.5995974541
    379.1183471680    213.3333282471      3.8192026615      3.8192026615
    379.2442932129    240.0000000000      3.6389527321      3.6389527321
    359.1183471680    240.0000000000      6.2705426216      6.2705426216
    358.9714050293    213.3333282471      6.0745773315      6.0745773315
    379.2442932129    240.0000000000      3.6389527321      3.6389527321
    379.3702392578    266.6666564941      3.4808750153      3.4808750153
    359.2652893066    266.6666564941      6.1808900833      6.1808900833
    359.1183471680    240.0000000000      6.2705426216      6.2705426216
    379.3702392578    266.6666564941      3.4808750153      3.4808750153
    379.4961853027    293.3333435059      3.4479100704      3.4479100704
    359.4122314453    293.3333435059      6.0556950569      6.0556950569
    359.2652893066    266.6666564941      6.1808900833      6.1808900833
    379.4961853027    293.3333435059      3.4479100704      3.4479100704
    379.6221618652    320.0000000000      3.4644351006      3.4644351006
    359.5591735840    320.0000000000      6.0181474686      6.0181474686
    359.4122314453    293.3333435059      6.0556950569      6.0556950569