 VARIABLES= "X","Y","Z","yita"  
ZONE N=                                        3000 E=                              750 F=FEPOINT, ET=QUADRILATERAL
    500.0000000000      0.0000000000      7.9570903778      7.9570903778
    500.0000000000     26.6666698456      7.9570903778      7.9570903778
    479.7061157227     26.6666698456      7.9570903778      7.9570903778
    479.6851196289      0.0000000000      7.9570903778      7.9570903778
    500.0000000000     26.6666698456      7.9570903778      7.9570903778
    500.0000000000     53.3333282471      7.9595351219      7.9595351219
    479.7271118164     53.3333282471      7.9595351219      7.9595351219
    479.7061157227     26.6666698456      7.9570903778      7.9570903778
    500.0000000000     53.3333282471      7.9595351219      7.9595351219
    500.0000000000     80.0000000000      7.9617524147      7.9617524147
    479.7481079102     80.0000000000      7.9617524147      7.9617524147
    479.7271118164     53.3333282471      7.9595351219      7.9595351219
    500.0000000000     80.0000000000      7.9617524147      7.9617524147
    500.0000000000    106.6666717529      7.9641370773      7.9641370773
    479.7691040039    106.6666717529      7.9641370773      7.9641370773
    479.7481079102     80.0000000000      7.9617524147      7.9617524147
    500.0000000000    106.6666717529      7.9641370773      7.9641370773
    500.0000000000    133.3333282471      7.9671549797      7.9671549797
    479.7900695801    133.3333282471      7.9671549797      7.9671549797
    479.7691040039    106.6666717529      7.9641370773      7.9641370773
    500.0000000000    133.3333282471      7.9671549797      7.9671549797
    500.0000000000    160.0000000000      7.9704003334      7.9704003334
    479.8110656738    160.0000000000      7.9704003334      7.9704003334
    479.7900695801    133.3333282471      7.9671549797      7.9671549797
    500.0000000000    160.0000000000      7.9704003334      7.9704003334
    500.0000000000    186.6666717529      7.9735975266      7.9735975266
    479.8320617676    186.6666717529      7.9735975266      7.9735975266
    479.8110656738    160.0000000000      7.9704003334      7.9704003334
    500.0000000000    186.6666717529      7.9735975266      7.9735975266
    500.0000000000    213.3333282471      7.9766097069      7.9766097069
    479.8530578613    213.3333282471      7.9766097069      7.9766097069
    479.8320617676    186.6666717529      7.9735975266      7.9735975266
    500.0000000000    213.3333282471      7.9766097069      7.9766097069
    500.0000000000    240.0000000000      7.9799671173      7.9799671173
    479.8740539551    240.0000000000      7.9799671173      7.9799671173
    479.8530578613    213.3333282471      7.9766097069      7.9766097069
    500.0000000000    240.0000000000      7.9799671173      7.9799671173
    500.0000000000    266.6666564941      7.9832401276      7.9832401276
    479.8950500488    266.6666564941      7.9832401276      7.9832401276
    479.8740539551    240.0000000000      7.9799671173      7.9799671173
    500.0000000000    266.6666564941      7.9832401276      7.9832401276
    500.0000000000    293.3333435059      7.9859795570      7.9859795570
    479.9160156250    293.3333435059      7.9859795570      7.9859795570
    479.8950500488    266.6666564941      7.9832401276      7.9832401276
    500.0000000000    293.3333435059      7.9859795570      7.9859795570
    500.0000000000    320.0000000000      7.9888353348      7.9888353348
    479.9370422363    320.0000000000      7.9888353348      7.9888353348
    479.9160156250    293.3333435059      7.9859795570      7.9859795570
    500.0000000000    320.0000000000      7.9888353348      7.9888353348
    500.0000000000    346.6666564941      7.9915904999      7.9915904999
    479.9580078125    346.6666564941      7.9915904999      7.9915904999
    479.9370422363    320.0000000000      7.9888353348      7.9888353348
    500.0000000000    346.6666564941      7.9915904999      7.9915904999
    500.0000000000    373.3333435059      7.9939947128      7.9939947128
    479.9790039062    373.3333435059      7.9939947128      7.9939947128
    479.9580078125    346.6666564941      7.9915904999      7.9915904999
    500.0000000000    373.3333435059      7.9939947128      7.9939947128
    500.0000000000    400.0000000000      7.9939947128      7.9939947128
    480.0000000000    400.0000000000      7.9939947128      7.9939947128
    479.9790039062    373.3333435059      7.9939947128      7.9939947128
    479.6851196289      0.0000000000      7.9570903778      7.9570903778
    479.7061157227     26.6666698456      7.9570903778      7.9570903778
    459.4122314453     26.6666698456      6.0065579414      6.0065579414
    459.3702392578      0.0000000000      6.0065579414      6.0065579414
    479.7061157227     26.6666698456      7.9570903778      7.9570903778
    479.7271118164     53.3333282471      7.9595351219      7.9595351219
    459.4542236328     53.3333282471      6.0109047890      6.0109047890
    459.4122314453     26.6666698456      6.0065579414      6.0065579414
    479.7271118164     53.3333282471      7.9595351219      7.9595351219
    479.7481079102     80.0000000000      7.9617524147      7.9617524147
    459.4961853027     80.0000000000      6.0153646469      6.0153646469
    459.4542236328     53.3333282471      6.0109047890      6.0109047890
    479.7481079102     80.0000000000      7.9617524147      7.9617524147
    479.7691040039    106.6666717529      7.9641370773      7.9641370773
    459.5381774902    106.6666717529      6.0205874443      6.0205874443
    459.4961853027     80.0000000000      6.0153646469      6.0153646469
    479.7691040039    106.6666717529      7.9641370773      7.9641370773
    479.7900695801    133.3333282471      7.9671549797      7.9671549797
    459.5801696777    133.3333282471      6.0269651413      6.0269651413
    459.5381774902    106.6666717529      6.0205874443      6.0205874443
    479.7900695801    133.3333282471      7.9671549797      7.9671549797
    479.8110656738    160.0000000000      7.9704003334      7.9704003334
    459.6221618652    160.0000000000      6.0342373848      6.0342373848
    459.5801696777    133.3333282471      6.0269651413      6.0269651413
    479.8110656738    160.0000000000      7.9704003334      7.9704003334
    479.8320617676    186.6666717529      7.9735975266      7.9735975266
    459.6641235352    186.6666717529      6.0416026115      6.0416026115
    459.6221618652    160.0000000000      6.0342373848      6.0342373848
    479.8320617676    186.6666717529      7.9735975266      7.9735975266
    479.8530578613    213.3333282471      7.9766097069      7.9766097069
    459.7061157227    213.3333282471      6.0483675003      6.0483675003
    459.6641235352    186.6666717529      6.0416026115      6.0416026115
    479.8530578613    213.3333282471      7.9766097069      7.9766097069
    479.8740539551    240.0000000000      7.9799671173      7.9799671173
    459.7481079102    240.0000000000      6.0545125008      6.0545125008
    459.7061157227    213.3333282471      6.0483675003      6.0483675003
    479.8740539551    240.0000000000      7.9799671173      7.9799671173
    479.8950500488    266.6666564941      7.9832401276      7.9832401276
    459.7900695801    266.6666564941      6.0603799820      6.0603799820
    459.7481079102    240.0000000000      6.0545125008      6.0545125008
    479.8950500488    266.6666564941      7.9832401276      7.9832401276
    479.9160156250    293.3333435059      7.9859795570      7.9859795570
    459.8320617676    293.3333435059      6.0661602020      6.0661602020
    459.7900695801    266.6666564941      6.0603799820      6.0603799820
    479.9160156250    293.3333435059      7.9859795570      7.9859795570
    479.9370422363    320.0000000000      7.9888353348      7.9888353348
    459.8740539551    320.0000000000      6.0718626976      6.0718626976
    459.8320617676    293.3333435059      6.0661602020      6.0661602020
    479.9370422363    320.0000000000      7.9888353348      7.9888353348
    479.9580078125    346.6666564941      7.9915904999      7.9915904999
    459.9160156250    346.6666564941      6.0774574280      6.0774574280
    459.8740539551    320.0000000000      6.0718626976      6.0718626976
    479.9580078125    346.6666564941      7.9915904999      7.9915904999
    479.9790039062    373.3333435059      7.9939947128      7.9939947128
    459.9580078125    373.3333435059      6.0829424858      6.0829424858
    459.9160156250    346.6666564941      6.0774574280      6.0774574280
    479.9790039062    373.3333435059      7.9939947128      7.9939947128
    480.0000000000    400.0000000000      7.9939947128      7.9939947128
    460.0000000000    400.0000000000      6.0829424858      6.0829424858
    459.9580078125    373.3333435059      6.0829424858      6.0829424858
    459.3702392578      0.0000000000      6.0065579414      6.0065579414
    459.4122314453     26.6666698456      6.0065579414      6.0065579414
    439.1183471680     26.6666698456      3.4044950008      3.4044950008
    439.0553588867      0.0000000000      3.4044950008      3.4044950008
    459.4122314453     26.6666698456      6.0065579414      6.0065579414
    459.4542236328     53.3333282471      6.0109047890      6.0109047890
    439.1813049316     53.3333282471      3.4175374508      3.4175374508
    439.1183471680     26.6666698456      3.4044950008      3.4044950008
    459.4542236328     53.3333282471      6.0109047890      6.0109047890
    459.4961853027     80.0000000000      6.0153646469      6.0153646469
    439.2442932129     80.0000000000      3.4307324886      3.4307324886
    439.1813049316     53.3333282471      3.4175374508      3.4175374508
    459.4961853027     80.0000000000      6.0153646469      6.0153646469
    459.5381774902    106.6666717529      6.0205874443      6.0205874443
    439.3072814941    106.6666717529      3.4413049221      3.4413049221
    439.2442932129     80.0000000000      3.4307324886      3.4307324886
    459.5381774902    106.6666717529      6.0205874443      6.0205874443
    459.5801696777    133.3333282471      6.0269651413      6.0269651413
    439.3702392578    133.3333282471      3.4478602409      3.4478602409
    439.3072814941    106.6666717529      3.4413049221      3.4413049221
    459.5801696777    133.3333282471      6.0269651413      6.0269651413
    459.6221618652    160.0000000000      6.0342373848      6.0342373848
    439.4332275391    160.0000000000      3.4518177509      3.4518177509
    439.3702392578    133.3333282471      3.4478602409      3.4478602409
    459.6221618652    160.0000000000      6.0342373848      6.0342373848
    459.6641235352    186.6666717529      6.0416026115      6.0416026115
    439.4961853027    186.6666717529      3.4568700790      3.4568700790
    439.4332275391    160.0000000000      3.4518177509      3.4518177509
    459.6641235352    186.6666717529      6.0416026115      6.0416026115
    459.7061157227    213.3333282471      6.0483675003      6.0483675003
    439.5591735840    213.3333282471      3.4655652046      3.4655652046
    439.4961853027    186.6666717529      3.4568700790      3.4568700790
    459.7061157227    213.3333282471      6.0483675003      6.0483675003
    459.7481079102    240.0000000000      6.0545125008      6.0545125008
    439.6221618652    240.0000000000      3.4765477180      3.4765477180
    439.5591735840    213.3333282471      3.4655652046      3.4655652046
    459.7481079102    240.0000000000      6.0545125008      6.0545125008
    459.7900695801    266.6666564941      6.0603799820      6.0603799820
    439.6851196289    266.6666564941      3.4871797562      3.4871797562
    439.6221618652    240.0000000000      3.4765477180      3.4765477180
    459.7900695801    266.6666564941      6.0603799820      6.0603799820
    459.8320617676    293.3333435059      6.0661602020      6.0661602020
    439.7481079102    293.3333435059      3.4967999458      3.4967999458
    439.6851196289    266.6666564941      3.4871797562      3.4871797562
    459.8320617676    293.3333435059      6.0661602020      6.0661602020
    459.8740539551    320.0000000000      6.0718626976      6.0718626976
    439.8110656738    320.0000000000      3.5060451031      3.5060451031
    439.7481079102    293.3333435059      3.4967999458      3.4967999458
    459.8740539551    320.0000000000      6.0718626976      6.0718626976
    459.9160156250    346.6666564941      6.0774574280      6.0774574280
    439.8740539551    346.6666564941      3.5152900219      3.5152900219
    439.8110656738    320.0000000000      3.5060451031      3.5060451031
    459.9160156250    346.6666564941      6.0774574280      6.0774574280
    459.9580078125    373.3333435059      6.0829424858      6.0829424858
    439.9370422363    373.3333435059      3.5245275497      3.5245275497
    439.8740539551    346.6666564941      3.5152900219      3.5152900219
    459.9580078125    373.3333435059      6.0829424858      6.0829424858
    460.0000000000    400.0000000000      6.0829424858      6.0829424858
    440.0000000000    400.0000000000      3.5245275497      3.5245275497
    439.9370422363    373.3333435059      3.5245275497      3.5245275497
    439.0553588867      0.0000000000      3.4044950008      3.4044950008
    439.1183471680     26.6666698456      3.4044950008      3.4044950008
    418.8244628906     26.6666698456      0.4194650054      0.4194650054
    418.7405090332      0.0000000000      0.4194650054      0.4194650054
    439.1183471680     26.6666698456      3.4044950008      3.4044950008
    439.1813049316     53.3333282471      3.4175374508      3.4175374508
    418.9084167480     53.3333282471      0.3795774579      0.3795774579
    418.8244628906     26.6666698456      0.4194650054      0.4194650054
    439.1813049316     53.3333282471      3.4175374508      3.4175374508
    439.2442932129     80.0000000000      3.4307324886      3.4307324886
    418.9924011230     80.0000000000      0.3349199891      0.3349199891
    418.9084167480     53.3333282471      0.3795774579      0.3795774579
    439.2442932129     80.0000000000      3.4307324886      3.4307324886
    439.3072814941    106.6666717529      3.4413049221      3.4413049221
    419.0763549805    106.6666717529      0.3200049698      0.3200049698
    418.9924011230     80.0000000000      0.3349199891      0.3349199891
    439.3072814941    106.6666717529      3.4413049221      3.4413049221
    439.3702392578    133.3333282471      3.4478602409      3.4478602409
    419.1603393555    133.3333282471      0.3558051288      0.3558051288
    419.0763549805    106.6666717529      0.3200049698      0.3200049698
    439.3702392578    133.3333282471      3.4478602409      3.4478602409
    439.4332275391    160.0000000000      3.4518177509      3.4518177509
    419.2442932129    160.0000000000      0.4303225279      0.4303225279
    419.1603393555    133.3333282471      0.3558051288      0.3558051288
    439.4332275391    160.0000000000      3.4518177509      3.4518177509
    439.4961853027    186.6666717529      3.4568700790      3.4568700790
    419.3282775879    186.6666717529      0.5011074543      0.5011074543
    419.2442932129    160.0000000000      0.4303225279      0.4303225279
    439.4961853027    186.6666717529      3.4568700790      3.4568700790
    439.5591735840    213.3333282471      3.4655652046      3.4655652046
    419.4122314453    213.3333282471      0.5338023901      0.5338023901
    419.3282775879    186.6666717529      0.5011074543      0.5011074543
    439.5591735840    213.3333282471      3.4655652046      3.4655652046
    439.6221618652    240.0000000000      3.4765477180      3.4765477180
    419.4961853027    240.0000000000      0.5375974774      0.5375974774
    419.4122314453    213.3333282471      0.5338023901      0.5338023901
    439.6221618652    240.0000000000      3.4765477180      3.4765477180
    439.6851196289    266.6666564941      3.4871797562      3.4871797562
    419.5801696777    266.6666564941      0.5402950644      0.5402950644
    419.4961853027    240.0000000000      0.5375974774      0.5375974774
    439.6851196289    266.6666564941      3.4871797562      3.4871797562
    439.7481079102    293.3333435059      3.4967999458      3.4967999458
    419.6641235352    293.3333435059      0.5511799455      0.5511799455
    419.5801696777    266.6666564941      0.5402950644      0.5402950644
    439.7481079102    293.3333435059      3.4967999458      3.4967999458
    439.8110656738    320.0000000000      3.5060451031      3.5060451031
    419.7481079102    320.0000000000      0.5650575161      0.5650575161
    419.6641235352    293.3333435059      0.5511799455      0.5511799455
    439.8110656738    320.0000000000      3.5060451031      3.5060451031
    439.8740539551    346.6666564941      3.5152900219      3.5152900219
    419.8320617676    346.6666564941      0.5783550143      0.5783550143
    419.7481079102    320.0000000000      0.5650575161      0.5650575161
    439.8740539551    346.6666564941      3.5152900219      3.5152900219
    439.9370422363    373.3333435059      3.5245275497      3.5245275497
    419.9160156250    373.3333435059      0.5912374854      0.5912374854
    419.8320617676    346.6666564941      0.5783550143      0.5783550143
    439.9370422363    373.3333435059      3.5245275497      3.5245275497
    440.0000000000    400.0000000000      3.5245275497      3.5245275497
    420.0000000000    400.0000000000      0.5912374854      0.5912374854
    419.9160156250    373.3333435059      0.5912374854      0.5912374854
    418.7405090332      0.0000000000      0.4194650054      0.4194650054
    418.8244628906     26.6666698456      0.4194650054      0.4194650054
    398.5305786133     26.6666698456     -2.1220226288     -2.1220226288
    398.4256286621      0.0000000000     -2.1220226288     -2.1220226288
    418.8244628906     26.6666698456      0.4194650054      0.4194650054
    418.9084167480     53.3333282471      0.3795774579      0.3795774579
    398.6355285645     53.3333282471     -2.2668850422     -2.2668850422
    398.5305786133     26.6666698456     -2.1220226288     -2.1220226288
    418.9084167480     53.3333282471      0.3795774579      0.3795774579
    418.9924011230     80.0000000000      0.3349199891      0.3349199891
    398.7405090332     80.0000000000     -2.4843101501     -2.4843101501
    398.6355285645     53.3333282471     -2.2668850422     -2.2668850422
    418.9924011230     80.0000000000      0.3349199891      0.3349199891
    419.0763549805    106.6666717529      0.3200049698      0.3200049698
    398.8454589844    106.6666717529     -2.6967775822     -2.6967775822
    398.7405090332     80.0000000000     -2.4843101501     -2.4843101501
    419.0763549805    106.6666717529      0.3200049698      0.3200049698
    419.1603393555    133.3333282471      0.3558051288      0.3558051288
    398.9504089355    133.3333282471     -2.8040776253     -2.8040776253
    398.8454589844    106.6666717529     -2.6967775822     -2.6967775822
    419.1603393555    133.3333282471      0.3558051288      0.3558051288
    419.2442932129    160.0000000000      0.4303225279      0.4303225279
    399.0553588867    160.0000000000     -2.7538175583     -2.7538175583
    398.9504089355    133.3333282471     -2.8040776253     -2.8040776253
    419.2442932129    160.0000000000      0.4303225279      0.4303225279
    419.3282775879    186.6666717529      0.5011074543      0.5011074543
    399.1603393555    186.6666717529     -2.6023898125     -2.6023898125
    399.0553588867    160.0000000000     -2.7538175583     -2.7538175583
    419.3282775879    186.6666717529      0.5011074543      0.5011074543
    419.4122314453    213.3333282471      0.5338023901      0.5338023901
    399.2652893066    213.3333282471     -2.4787673950     -2.4787673950
    399.1603393555    186.6666717529     -2.6023898125     -2.6023898125
    419.4122314453    213.3333282471      0.5338023901      0.5338023901
    419.4961853027    240.0000000000      0.5375974774      0.5375974774
    399.3702392578    240.0000000000     -2.4444174767     -2.4444174767
    399.2652893066    213.3333282471     -2.4787673950     -2.4787673950
    419.4961853027    240.0000000000      0.5375974774      0.5375974774
    419.5801696777    266.6666564941      0.5402950644      0.5402950644
    399.4752197266    266.6666564941     -2.4528951645     -2.4528951645
    399.3702392578    240.0000000000     -2.4444174767     -2.4444174767
    419.5801696777    266.6666564941      0.5402950644      0.5402950644
    419.6641235352    293.3333435059      0.5511799455      0.5511799455
    399.5801696777    293.3333435059     -2.4521424770     -2.4521424770
    399.4752197266    266.6666564941     -2.4528951645     -2.4528951645
    419.6641235352    293.3333435059      0.5511799455      0.5511799455
    419.7481079102    320.0000000000      0.5650575161      0.5650575161
    399.6851196289    320.0000000000     -2.4375400543     -2.4375400543
    399.5801696777    293.3333435059     -2.4521424770     -2.4521424770
    419.7481079102    320.0000000000      0.5650575161      0.5650575161
    419.8320617676    346.6666564941      0.5783550143      0.5783550143
    399.7900695801    346.6666564941     -2.4204199314     -2.4204199314
    399.6851196289    320.0000000000     -2.4375400543     -2.4375400543
    419.8320617676    346.6666564941      0.5783550143      0.5783550143
    419.9160156250    373.3333435059      0.5912374854      0.5912374854
    399.8950500488    373.3333435059     -2.4044098854     -2.4044098854
    399.7900695801    346.6666564941     -2.4204199314     -2.4204199314
    419.9160156250    373.3333435059      0.5912374854      0.5912374854
    420.0000000000    400.0000000000      0.5912374854      0.5912374854
    400.0000000000    400.0000000000     -2.4044098854     -2.4044098854
    399.8950500488    373.3333435059     -2.4044098854     -2.4044098854
    398.4256286621      0.0000000000     -2.1220226288     -2.1220226288
    398.5305786133     26.6666698456     -2.1220226288     -2.1220226288
    378.2366943359     26.6666698456     -4.6911001205     -4.6911001205
    378.1107482910      0.0000000000     -4.6911001205     -4.6911001205
    398.5305786133     26.6666698456     -2.1220226288     -2.1220226288
    398.6355285645     53.3333282471     -2.2668850422     -2.2668850422
    378.3626403809     53.3333282471     -4.6189699173     -4.6189699173
    378.2366943359     26.6666698456     -4.6911001205     -4.6911001205
    398.6355285645     53.3333282471     -2.2668850422     -2.2668850422
    398.7405090332     80.0000000000     -2.4843101501     -2.4843101501
    378.4885864258     80.0000000000     -4.6274347305     -4.6274347305
    378.3626403809     53.3333282471     -4.6189699173     -4.6189699173
    398.7405090332     80.0000000000     -2.4843101501     -2.4843101501
    398.8454589844    106.6666717529     -2.6967775822     -2.6967775822
    378.6145629883    106.6666717529     -4.7936801910     -4.7936801910
    378.4885864258     80.0000000000     -4.6274347305     -4.6274347305
    398.8454589844    106.6666717529     -2.6967775822     -2.6967775822
    398.9504089355    133.3333282471     -2.8040776253     -2.8040776253
    378.7405090332    133.3333282471     -5.0829153061     -5.0829153061
    378.6145629883    106.6666717529     -4.7936801910     -4.7936801910
    398.9504089355    133.3333282471     -2.8040776253     -2.8040776253
    399.0553588867    160.0000000000     -2.7538175583     -2.7538175583
    378.8664550781    160.0000000000     -5.3425626755     -5.3425626755
    378.7405090332    133.3333282471     -5.0829153061     -5.0829153061
    399.0553588867    160.0000000000     -2.7538175583     -2.7538175583
    399.1603393555    186.6666717529     -2.6023898125     -2.6023898125
    378.9924011230    186.6666717529     -5.4207172394     -5.4207172394
    378.8664550781    160.0000000000     -5.3425626755     -5.3425626755
    399.1603393555    186.6666717529     -2.6023898125     -2.6023898125
    399.2652893066    213.3333282471     -2.4787673950     -2.4787673950
    379.1183471680    213.3333282471     -5.3297824860     -5.3297824860
    378.9924011230    186.6666717529     -5.4207172394     -5.4207172394
    399.2652893066    213.3333282471     -2.4787673950     -2.4787673950
    399.3702392578    240.0000000000     -2.4444174767     -2.4444174767
    379.2442932129    240.0000000000     -5.2218971252     -5.2218971252
    379.1183471680    213.3333282471     -5.3297824860     -5.3297824860
    399.3702392578    240.0000000000     -2.4444174767     -2.4444174767
    399.4752197266    266.6666564941     -2.4528951645     -2.4528951645
    379.3702392578    266.6666564941     -5.1838474274     -5.1838474274
    379.2442932129    240.0000000000     -5.2218971252     -5.2218971252
    399.4752197266    266.6666564941     -2.4528951645     -2.4528951645
    399.5801696777    293.3333435059     -2.4521424770     -2.4521424770
    379.4961853027    293.3333435059     -5.1830301285     -5.1830301285
    379.3702392578    266.6666564941     -5.1838474274     -5.1838474274
    399.5801696777    293.3333435059     -2.4521424770     -2.4521424770
    399.6851196289    320.0000000000     -2.4375400543     -2.4375400543
    379.6221618652    320.0000000000     -5.1768150330     -5.1768150330
    379.4961853027    293.3333435059     -5.1830301285     -5.1830301285
    399.6851196289    320.0000000000     -2.4375400543     -2.4375400543
    399.7900695801    346.6666564941     -2.4204199314     -2.4204199314
    379.7481079102    346.6666564941     -5.1612024307     -5.1612024307
    379.6221618652    320.0000000000     -5.1768150330     -5.1768150330
    399.7900695801    346.6666564941     -2.4204199314     -2.4204199314
    399.8950500488    373.3333435059     -2.4044098854     -2.4044098854
    379.8740539551    373.3333435059     -5.1440949440     -5.1440949440
    379.7481079102    346.6666564941     -5.1612024307     -5.1612024307
    399.8950500488    373.3333435059     -2.4044098854     -2.4044098854
    400.0000000000    400.0000000000     -2.4044098854     -2.4044098854
    380.0000000000    400.0000000000     -5.1440949440     -5.1440949440
    379.8740539551    373.3333435059     -5.1440949440     -5.1440949440
    378.1107482910      0.0000000000     -4.6911001205     -4.6911001205
    378.2366943359     26.6666698456     -4.6911001205     -4.6911001205
    357.9428100586     26.6666698456     -8.6138696671     -8.6138696671
    357.7958679199      0.0000000000     -8.6138696671     -8.6138696671
    378.2366943359     26.6666698456     -4.6911001205     -4.6911001205
    378.3626403809     53.3333282471     -4.6189699173     -4.6189699173
    358.0897521973     53.3333282471     -8.2125196457     -8.2125196457
    357.9428100586     26.6666698456     -8.6138696671     -8.6138696671
    378.3626403809     53.3333282471     -4.6189699173     -4.6189699173
    378.4885864258     80.0000000000     -4.6274347305     -4.6274347305
    358.2366943359     80.0000000000     -7.6488399506     -7.6488399506
    358.0897521973     53.3333282471     -8.2125196457     -8.2125196457
    378.4885864258     80.0000000000     -4.6274347305     -4.6274347305
    378.6145629883    106.6666717529     -4.7936801910     -4.7936801910
    358.3836364746    106.6666717529     -7.1272473335     -7.1272473335
    358.2366943359     80.0000000000     -7.6488399506     -7.6488399506
    378.6145629883    106.6666717529     -4.7936801910     -4.7936801910
    378.7405090332    133.3333282471     -5.0829153061     -5.0829153061
    358.5305786133    133.3333282471     -6.8881497383     -6.8881497383
    358.3836364746    106.6666717529     -7.1272473335     -7.1272473335
    378.7405090332    133.3333282471     -5.0829153061     -5.0829153061
    378.8664550781    160.0000000000     -5.3425626755     -5.3425626755
    358.6775207520    160.0000000000     -7.0122900009     -7.0122900009
    358.5305786133    133.3333282471     -6.8881497383     -6.8881497383
    378.8664550781    160.0000000000     -5.3425626755     -5.3425626755
    378.9924011230    186.6666717529     -5.4207172394     -5.4207172394
    358.8244628906    186.6666717529     -7.3109726906     -7.3109726906
    358.6775207520    160.0000000000     -7.0122900009     -7.0122900009
    378.9924011230    186.6666717529     -5.4207172394     -5.4207172394
    379.1183471680    213.3333282471     -5.3297824860     -5.3297824860
    358.9714050293    213.3333282471     -7.4940724373     -7.4940724373
    358.8244628906    186.6666717529     -7.3109726906     -7.3109726906
    379.1183471680    213.3333282471     -5.3297824860     -5.3297824860
    379.2442932129    240.0000000000     -5.2218971252     -5.2218971252
    359.1183471680    240.0000000000     -7.4800271988     -7.4800271988
    358.9714050293    213.3333282471     -7.4940724373     -7.4940724373
    379.2442932129    240.0000000000     -5.2218971252     -5.2218971252
    379.3702392578    266.6666564941     -5.1838474274     -5.1838474274
    359.2652893066    266.6666564941     -7.4035778046     -7.4035778046
    359.1183471680    240.0000000000     -7.4800271988     -7.4800271988
    379.3702392578    266.6666564941     -5.1838474274     -5.1838474274
    379.4961853027    293.3333435059     -5.1830301285     -5.1830301285
    359.4122314453    293.3333435059     -7.3664450645     -7.3664450645
    359.2652893066    266.6666564941     -7.4035778046     -7.4035778046
    379.4961853027    293.3333435059     -5.1830301285     -5.1830301285
    379.6221618652    320.0000000000     -5.1768150330     -5.1768150330
    359.5591735840    320.0000000000     -7.3584651947     -7.3584651947
    359.4122314453    293.3333435059     -7.3664450645     -7.3664450645