 VARIABLES= "X","Y","Z","yita"  
ZONE N=                                        3000 E=                              750 F=FEPOINT, ET=QUADRILATERAL
    500.0000000000      0.0000000000      1.8699125051      1.8699125051
    500.0000000000     26.6666698456      1.8699125051      1.8699125051
    479.7061157227     26.6666698456      1.8699125051      1.8699125051
    479.6851196289      0.0000000000      1.8699125051      1.8699125051
    500.0000000000     26.6666698456      1.8699125051      1.8699125051
    500.0000000000     53.3333282471      1.8731224537      1.8731224537
    479.7271118164     53.3333282471      1.8731224537      1.8731224537
    479.7061157227     26.6666698456      1.8699125051      1.8699125051
    500.0000000000     53.3333282471      1.8731224537      1.8731224537
    500.0000000000     80.0000000000      1.8767000437      1.8767000437
    479.7481079102     80.0000000000      1.8767000437      1.8767000437
    479.7271118164     53.3333282471      1.8731224537      1.8731224537
    500.0000000000     80.0000000000      1.8767000437      1.8767000437
    500.0000000000    106.6666717529      1.8802375793      1.8802375793
    479.7691040039    106.6666717529      1.8802375793      1.8802375793
    479.7481079102     80.0000000000      1.8767000437      1.8767000437
    500.0000000000    106.6666717529      1.8802375793      1.8802375793
    500.0000000000    133.3333282471      1.8834625483      1.8834625483
    479.7900695801    133.3333282471      1.8834625483      1.8834625483
    479.7691040039    106.6666717529      1.8802375793      1.8802375793
    500.0000000000    133.3333282471      1.8834625483      1.8834625483
    500.0000000000    160.0000000000      1.8874651194      1.8874651194
    479.8110656738    160.0000000000      1.8874651194      1.8874651194
    479.7900695801    133.3333282471      1.8834625483      1.8834625483
    500.0000000000    160.0000000000      1.8874651194      1.8874651194
    500.0000000000    186.6666717529      1.8915425539      1.8915425539
    479.8320617676    186.6666717529      1.8915425539      1.8915425539
    479.8110656738    160.0000000000      1.8874651194      1.8874651194
    500.0000000000    186.6666717529      1.8915425539      1.8915425539
    500.0000000000    213.3333282471      1.8949300051      1.8949300051
    479.8530578613    213.3333282471      1.8949300051      1.8949300051
    479.8320617676    186.6666717529      1.8915425539      1.8915425539
    500.0000000000    213.3333282471      1.8949300051      1.8949300051
    500.0000000000    240.0000000000      1.8986898661      1.8986898661
    479.8740539551    240.0000000000      1.8986898661      1.8986898661
    479.8530578613    213.3333282471      1.8949300051      1.8949300051
    500.0000000000    240.0000000000      1.8986898661      1.8986898661
    500.0000000000    266.6666564941      1.9024674892      1.9024674892
    479.8950500488    266.6666564941      1.9024674892      1.9024674892
    479.8740539551    240.0000000000      1.8986898661      1.8986898661
    500.0000000000    266.6666564941      1.9024674892      1.9024674892
    500.0000000000    293.3333435059      1.9058375359      1.9058375359
    479.9160156250    293.3333435059      1.9058375359      1.9058375359
    479.8950500488    266.6666564941      1.9024674892      1.9024674892
    500.0000000000    293.3333435059      1.9058375359      1.9058375359
    500.0000000000    320.0000000000      1.9093499184      1.9093499184
    479.9370422363    320.0000000000      1.9093499184      1.9093499184
    479.9160156250    293.3333435059      1.9058375359      1.9058375359
    500.0000000000    320.0000000000      1.9093499184      1.9093499184
    500.0000000000    346.6666564941      1.9128473997      1.9128473997
    479.9580078125    346.6666564941      1.9128473997      1.9128473997
    479.9370422363    320.0000000000      1.9093499184      1.9093499184
    500.0000000000    346.6666564941      1.9128473997      1.9128473997
    500.0000000000    373.3333435059      1.9161574841      1.9161574841
    479.9790039062    373.3333435059      1.9161574841      1.9161574841
    479.9580078125    346.6666564941      1.9128473997      1.9128473997
    500.0000000000    373.3333435059      1.9161574841      1.9161574841
    500.0000000000    400.0000000000      1.9161574841      1.9161574841
    480.0000000000    400.0000000000      1.9161574841      1.9161574841
    479.9790039062    373.3333435059      1.9161574841      1.9161574841
    479.6851196289      0.0000000000      1.8699125051      1.8699125051
    479.7061157227     26.6666698456      1.8699125051      1.8699125051
    459.4122314453     26.6666698456     -1.1753950119     -1.1753950119
    459.3702392578      0.0000000000     -1.1753950119     -1.1753950119
    479.7061157227     26.6666698456      1.8699125051      1.8699125051
    479.7271118164     53.3333282471      1.8731224537      1.8731224537
    459.4542236328     53.3333282471     -1.1693224907     -1.1693224907
    459.4122314453     26.6666698456     -1.1753950119     -1.1753950119
    479.7271118164     53.3333282471      1.8731224537      1.8731224537
    479.7481079102     80.0000000000      1.8767000437      1.8767000437
    459.4961853027     80.0000000000     -1.1628975868     -1.1628975868
    459.4542236328     53.3333282471     -1.1693224907     -1.1693224907
    479.7481079102     80.0000000000      1.8767000437      1.8767000437
    479.7691040039    106.6666717529      1.8802375793      1.8802375793
    459.5381774902    106.6666717529     -1.1558599472     -1.1558599472
    459.4961853027     80.0000000000     -1.1628975868     -1.1628975868
    479.7691040039    106.6666717529      1.8802375793      1.8802375793
    479.7900695801    133.3333282471      1.8834625483      1.8834625483
    459.5801696777    133.3333282471     -1.1483625174     -1.1483625174
    459.5381774902    106.6666717529     -1.1558599472     -1.1558599472
    479.7900695801    133.3333282471      1.8834625483      1.8834625483
    479.8110656738    160.0000000000      1.8874651194      1.8874651194
    459.6221618652    160.0000000000     -1.1409674883     -1.1409674883
    459.5801696777    133.3333282471     -1.1483625174     -1.1483625174
    479.8110656738    160.0000000000      1.8874651194      1.8874651194
    479.8320617676    186.6666717529      1.8915425539      1.8915425539
    459.6641235352    186.6666717529     -1.1342425346     -1.1342425346
    459.6221618652    160.0000000000     -1.1409674883     -1.1409674883
    479.8320617676    186.6666717529      1.8915425539      1.8915425539
    479.8530578613    213.3333282471      1.8949300051      1.8949300051
    459.7061157227    213.3333282471     -1.1281775236     -1.1281775236
    459.6641235352    186.6666717529     -1.1342425346     -1.1342425346
    479.8530578613    213.3333282471      1.8949300051      1.8949300051
    479.8740539551    240.0000000000      1.8986898661      1.8986898661
    459.7481079102    240.0000000000     -1.1222825050     -1.1222825050
    459.7061157227    213.3333282471     -1.1281775236     -1.1281775236
    479.8740539551    240.0000000000      1.8986898661      1.8986898661
    479.8950500488    266.6666564941      1.9024674892      1.9024674892
    459.7900695801    266.6666564941     -1.1162674427     -1.1162674427
    459.7481079102    240.0000000000     -1.1222825050     -1.1222825050
    479.8950500488    266.6666564941      1.9024674892      1.9024674892
    479.9160156250    293.3333435059      1.9058375359      1.9058375359
    459.8320617676    293.3333435059     -1.1101549864     -1.1101549864
    459.7900695801    266.6666564941     -1.1162674427     -1.1162674427
    479.9160156250    293.3333435059      1.9058375359      1.9058375359
    479.9370422363    320.0000000000      1.9093499184      1.9093499184
    459.8740539551    320.0000000000     -1.1040049791     -1.1040049791
    459.8320617676    293.3333435059     -1.1101549864     -1.1101549864
    479.9370422363    320.0000000000      1.9093499184      1.9093499184
    479.9580078125    346.6666564941      1.9128473997      1.9128473997
    459.9160156250    346.6666564941     -1.0978374481     -1.0978374481
    459.8740539551    320.0000000000     -1.1040049791     -1.1040049791
    479.9580078125    346.6666564941      1.9128473997      1.9128473997
    479.9790039062    373.3333435059      1.9161574841      1.9161574841
    459.9580078125    373.3333435059     -1.0916523933     -1.0916523933
    459.9160156250    346.6666564941     -1.0978374481     -1.0978374481
    479.9790039062    373.3333435059      1.9161574841      1.9161574841
    480.0000000000    400.0000000000      1.9161574841      1.9161574841
    460.0000000000    400.0000000000     -1.0916523933     -1.0916523933
    459.9580078125    373.3333435059     -1.0916523933     -1.0916523933
    459.3702392578      0.0000000000     -1.1753950119     -1.1753950119
    459.4122314453     26.6666698456     -1.1753950119     -1.1753950119
    439.1183471680     26.6666698456     -4.0661373138     -4.0661373138
    439.0553588867      0.0000000000     -4.0661373138     -4.0661373138
    459.4122314453     26.6666698456     -1.1753950119     -1.1753950119
    459.4542236328     53.3333282471     -1.1693224907     -1.1693224907
    439.1813049316     53.3333282471     -4.0587501526     -4.0587501526
    439.1183471680     26.6666698456     -4.0661373138     -4.0661373138
    459.4542236328     53.3333282471     -1.1693224907     -1.1693224907
    459.4961853027     80.0000000000     -1.1628975868     -1.1628975868
    439.2442932129     80.0000000000     -4.0536451340     -4.0536451340
    439.1813049316     53.3333282471     -4.0587501526     -4.0587501526
    459.4961853027     80.0000000000     -1.1628975868     -1.1628975868
    459.5381774902    106.6666717529     -1.1558599472     -1.1558599472
    439.3072814941    106.6666717529     -4.0514025688     -4.0514025688
    439.2442932129     80.0000000000     -4.0536451340     -4.0536451340
    459.5381774902    106.6666717529     -1.1558599472     -1.1558599472
    459.5801696777    133.3333282471     -1.1483625174     -1.1483625174
    439.3702392578    133.3333282471     -4.0505752563     -4.0505752563
    439.3072814941    106.6666717529     -4.0514025688     -4.0514025688
    459.5801696777    133.3333282471     -1.1483625174     -1.1483625174
    459.6221618652    160.0000000000     -1.1409674883     -1.1409674883
    439.4332275391    160.0000000000     -4.0480923653     -4.0480923653
    439.3702392578    133.3333282471     -4.0505752563     -4.0505752563
    459.6221618652    160.0000000000     -1.1409674883     -1.1409674883
    459.6641235352    186.6666717529     -1.1342425346     -1.1342425346
    439.4961853027    186.6666717529     -4.0416421890     -4.0416421890
    439.4332275391    160.0000000000     -4.0480923653     -4.0480923653
    459.6641235352    186.6666717529     -1.1342425346     -1.1342425346
    459.7061157227    213.3333282471     -1.1281775236     -1.1281775236
    439.5591735840    213.3333282471     -4.0323524475     -4.0323524475
    439.4961853027    186.6666717529     -4.0416421890     -4.0416421890
    459.7061157227    213.3333282471     -1.1281775236     -1.1281775236
    459.7481079102    240.0000000000     -1.1222825050     -1.1222825050
    439.6221618652    240.0000000000     -4.0231823921     -4.0231823921
    439.5591735840    213.3333282471     -4.0323524475     -4.0323524475
    459.7481079102    240.0000000000     -1.1222825050     -1.1222825050
    459.7900695801    266.6666564941     -1.1162674427     -1.1162674427
    439.6851196289    266.6666564941     -4.0151925087     -4.0151925087
    439.6221618652    240.0000000000     -4.0231823921     -4.0231823921
    459.7900695801    266.6666564941     -1.1162674427     -1.1162674427
    459.8320617676    293.3333435059     -1.1101549864     -1.1101549864
    439.7481079102    293.3333435059     -4.0075998306     -4.0075998306
    439.6851196289    266.6666564941     -4.0151925087     -4.0151925087
    459.8320617676    293.3333435059     -1.1101549864     -1.1101549864
    459.8740539551    320.0000000000     -1.1040049791     -1.1040049791
    439.8110656738    320.0000000000     -3.9997825623     -3.9997825623
    439.7481079102    293.3333435059     -4.0075998306     -4.0075998306
    459.8740539551    320.0000000000     -1.1040049791     -1.1040049791
    459.9160156250    346.6666564941     -1.0978374481     -1.0978374481
    439.8740539551    346.6666564941     -3.9917473793     -3.9917473793
    439.8110656738    320.0000000000     -3.9997825623     -3.9997825623
    459.9160156250    346.6666564941     -1.0978374481     -1.0978374481
    459.9580078125    373.3333435059     -1.0916523933     -1.0916523933
    439.9370422363    373.3333435059     -3.9836149216     -3.9836149216
    439.8740539551    346.6666564941     -3.9917473793     -3.9917473793
    459.9580078125    373.3333435059     -1.0916523933     -1.0916523933
    460.0000000000    400.0000000000     -1.0916523933     -1.0916523933
    440.0000000000    400.0000000000     -3.9836149216     -3.9836149216
    439.9370422363    373.3333435059     -3.9836149216     -3.9836149216
    439.0553588867      0.0000000000     -4.0661373138     -4.0661373138
    439.1183471680     26.6666698456     -4.0661373138     -4.0661373138
    418.8244628906     26.6666698456     -6.7457976341     -6.7457976341
    418.7405090332      0.0000000000     -6.7457976341     -6.7457976341
    439.1183471680     26.6666698456     -4.0661373138     -4.0661373138
    439.1813049316     53.3333282471     -4.0587501526     -4.0587501526
    418.9084167480     53.3333282471     -6.7404127121     -6.7404127121
    418.8244628906     26.6666698456     -6.7457976341     -6.7457976341
    439.1813049316     53.3333282471     -4.0587501526     -4.0587501526
    439.2442932129     80.0000000000     -4.0536451340     -4.0536451340
    418.9924011230     80.0000000000     -6.7141194344     -6.7141194344
    418.9084167480     53.3333282471     -6.7404127121     -6.7404127121
    439.2442932129     80.0000000000     -4.0536451340     -4.0536451340
    439.3072814941    106.6666717529     -4.0514025688     -4.0514025688
    419.0763549805    106.6666717529     -6.6543779373     -6.6543779373
    418.9924011230     80.0000000000     -6.7141194344     -6.7141194344
    439.3072814941    106.6666717529     -4.0514025688     -4.0514025688
    439.3702392578    133.3333282471     -4.0505752563     -4.0505752563
    419.1603393555    133.3333282471     -6.5726594925     -6.5726594925
    419.0763549805    106.6666717529     -6.6543779373     -6.6543779373
    439.3702392578    133.3333282471     -4.0505752563     -4.0505752563
    439.4332275391    160.0000000000     -4.0480923653     -4.0480923653
    419.2442932129    160.0000000000     -6.5030002594     -6.5030002594
    419.1603393555    133.3333282471     -6.5726594925     -6.5726594925
    439.4332275391    160.0000000000     -4.0480923653     -4.0480923653
    439.4961853027    186.6666717529     -4.0416421890     -4.0416421890
    419.3282775879    186.6666717529     -6.4753775597     -6.4753775597
    419.2442932129    160.0000000000     -6.5030002594     -6.5030002594
    439.4961853027    186.6666717529     -4.0416421890     -4.0416421890
    439.5591735840    213.3333282471     -4.0323524475     -4.0323524475
    419.4122314453    213.3333282471     -6.4819350243     -6.4819350243
    419.3282775879    186.6666717529     -6.4753775597     -6.4753775597
    439.5591735840    213.3333282471     -4.0323524475     -4.0323524475
    439.6221618652    240.0000000000     -4.0231823921     -4.0231823921
    419.4961853027    240.0000000000     -6.4905648232     -6.4905648232
    419.4122314453    213.3333282471     -6.4819350243     -6.4819350243
    439.6221618652    240.0000000000     -4.0231823921     -4.0231823921
    439.6851196289    266.6666564941     -4.0151925087     -4.0151925087
    419.5801696777    266.6666564941     -6.4869623184     -6.4869623184
    419.4961853027    240.0000000000     -6.4905648232     -6.4905648232
    439.6851196289    266.6666564941     -4.0151925087     -4.0151925087
    439.7481079102    293.3333435059     -4.0075998306     -4.0075998306
    419.6641235352    293.3333435059     -6.4775624275     -6.4775624275
    419.5801696777    266.6666564941     -6.4869623184     -6.4869623184
    439.7481079102    293.3333435059     -4.0075998306     -4.0075998306
    439.8110656738    320.0000000000     -3.9997825623     -3.9997825623
    419.7481079102    320.0000000000     -6.4686675072     -6.4686675072
    419.6641235352    293.3333435059     -6.4775624275     -6.4775624275
    439.8110656738    320.0000000000     -3.9997825623     -3.9997825623
    439.8740539551    346.6666564941     -3.9917473793     -3.9917473793
    419.8320617676    346.6666564941     -6.4606447220     -6.4606447220
    419.7481079102    320.0000000000     -6.4686675072     -6.4686675072
    439.8740539551    346.6666564941     -3.9917473793     -3.9917473793
    439.9370422363    373.3333435059     -3.9836149216     -3.9836149216
    419.9160156250    373.3333435059     -6.4524574280     -6.4524574280
    419.8320617676    346.6666564941     -6.4606447220     -6.4606447220
    439.9370422363    373.3333435059     -3.9836149216     -3.9836149216
    440.0000000000    400.0000000000     -3.9836149216     -3.9836149216
    420.0000000000    400.0000000000     -6.4524574280     -6.4524574280
    419.9160156250    373.3333435059     -6.4524574280     -6.4524574280
    418.7405090332      0.0000000000     -6.7457976341     -6.7457976341
    418.8244628906     26.6666698456     -6.7457976341     -6.7457976341
    398.5305786133     26.6666698456     -8.4112758636     -8.4112758636
    398.4256286621      0.0000000000     -8.4112758636     -8.4112758636
    418.8244628906     26.6666698456     -6.7457976341     -6.7457976341
    418.9084167480     53.3333282471     -6.7404127121     -6.7404127121
    398.6355285645     53.3333282471     -8.5137548447     -8.5137548447
    398.5305786133     26.6666698456     -8.4112758636     -8.4112758636
    418.9084167480     53.3333282471     -6.7404127121     -6.7404127121
    418.9924011230     80.0000000000     -6.7141194344     -6.7141194344
    398.7405090332     80.0000000000     -8.6154546738     -8.6154546738
    398.6355285645     53.3333282471     -8.5137548447     -8.5137548447
    418.9924011230     80.0000000000     -6.7141194344     -6.7141194344
    419.0763549805    106.6666717529     -6.6543779373     -6.6543779373
    398.8454589844    106.6666717529     -8.6374950409     -8.6374950409
    398.7405090332     80.0000000000     -8.6154546738     -8.6154546738
    419.0763549805    106.6666717529     -6.6543779373     -6.6543779373
    419.1603393555    133.3333282471     -6.5726594925     -6.5726594925
    398.9504089355    133.3333282471     -8.5411949158     -8.5411949158
    398.8454589844    106.6666717529     -8.6374950409     -8.6374950409
    419.1603393555    133.3333282471     -6.5726594925     -6.5726594925
    419.2442932129    160.0000000000     -6.5030002594     -6.5030002594
    399.0553588867    160.0000000000     -8.3721694946     -8.3721694946
    398.9504089355    133.3333282471     -8.5411949158     -8.5411949158
    419.2442932129    160.0000000000     -6.5030002594     -6.5030002594
    419.3282775879    186.6666717529     -6.4753775597     -6.4753775597
    399.1603393555    186.6666717529     -8.2406921387     -8.2406921387
    399.0553588867    160.0000000000     -8.3721694946     -8.3721694946
    419.3282775879    186.6666717529     -6.4753775597     -6.4753775597
    419.4122314453    213.3333282471     -6.4819350243     -6.4819350243
    399.2652893066    213.3333282471     -8.2119750977     -8.2119750977
    399.1603393555    186.6666717529     -8.2406921387     -8.2406921387
    419.4122314453    213.3333282471     -6.4819350243     -6.4819350243
    419.4961853027    240.0000000000     -6.4905648232     -6.4905648232
    399.3702392578    240.0000000000     -8.2407646179     -8.2407646179
    399.2652893066    213.3333282471     -8.2119750977     -8.2119750977
    419.4961853027    240.0000000000     -6.4905648232     -6.4905648232
    419.5801696777    266.6666564941     -6.4869623184     -6.4869623184
    399.4752197266    266.6666564941     -8.2594318390     -8.2594318390
    399.3702392578    240.0000000000     -8.2407646179     -8.2407646179
    419.5801696777    266.6666564941     -6.4869623184     -6.4869623184
    419.6641235352    293.3333435059     -6.4775624275     -6.4775624275
    399.5801696777    293.3333435059     -8.2562351227     -8.2562351227
    399.4752197266    266.6666564941     -8.2594318390     -8.2594318390
    419.6641235352    293.3333435059     -6.4775624275     -6.4775624275
    419.7481079102    320.0000000000     -6.4686675072     -6.4686675072
    399.6851196289    320.0000000000     -8.2476720810     -8.2476720810
    399.5801696777    293.3333435059     -8.2562351227     -8.2562351227
    419.7481079102    320.0000000000     -6.4686675072     -6.4686675072
    419.8320617676    346.6666564941     -6.4606447220     -6.4606447220
    399.7900695801    346.6666564941     -8.2410545349     -8.2410545349
    399.6851196289    320.0000000000     -8.2476720810     -8.2476720810
    419.8320617676    346.6666564941     -6.4606447220     -6.4606447220
    419.9160156250    373.3333435059     -6.4524574280     -6.4524574280
    399.8950500488    373.3333435059     -8.2349777222     -8.2349777222
    399.7900695801    346.6666564941     -8.2410545349     -8.2410545349
    419.9160156250    373.3333435059     -6.4524574280     -6.4524574280
    420.0000000000    400.0000000000     -6.4524574280     -6.4524574280
    400.0000000000    400.0000000000     -8.2349777222     -8.2349777222
    399.8950500488    373.3333435059     -8.2349777222     -8.2349777222
    398.4256286621      0.0000000000     -8.4112758636     -8.4112758636
    398.5305786133     26.6666698456     -8.4112758636     -8.4112758636
    378.2366943359     26.6666698456     -8.3538951874     -8.3538951874
    378.1107482910      0.0000000000     -8.3538951874     -8.3538951874
    398.5305786133     26.6666698456     -8.4112758636     -8.4112758636
    398.6355285645     53.3333282471     -8.5137548447     -8.5137548447
    378.3626403809     53.3333282471     -8.4775104523     -8.4775104523
    378.2366943359     26.6666698456     -8.3538951874     -8.3538951874
    398.6355285645     53.3333282471     -8.5137548447     -8.5137548447
    398.7405090332     80.0000000000     -8.6154546738     -8.6154546738
    378.4885864258     80.0000000000     -8.7134723663     -8.7134723663
    378.3626403809     53.3333282471     -8.4775104523     -8.4775104523
    398.7405090332     80.0000000000     -8.6154546738     -8.6154546738
    398.8454589844    106.6666717529     -8.6374950409     -8.6374950409
    378.6145629883    106.6666717529     -9.0201902390     -9.0201902390
    378.4885864258     80.0000000000     -8.7134723663     -8.7134723663
    398.8454589844    106.6666717529     -8.6374950409     -8.6374950409
    398.9504089355    133.3333282471     -8.5411949158     -8.5411949158
    378.7405090332    133.3333282471     -9.2760791779     -9.2760791779
    378.6145629883    106.6666717529     -9.0201902390     -9.0201902390
    398.9504089355    133.3333282471     -8.5411949158     -8.5411949158
    399.0553588867    160.0000000000     -8.3721694946     -8.3721694946
    378.8664550781    160.0000000000     -9.3581676483     -9.3581676483
    378.7405090332    133.3333282471     -9.2760791779     -9.2760791779
    399.0553588867    160.0000000000     -8.3721694946     -8.3721694946
    399.1603393555    186.6666717529     -8.2406921387     -8.2406921387
    378.9924011230    186.6666717529     -9.2680053711     -9.2680053711
    378.8664550781    160.0000000000     -9.3581676483     -9.3581676483
    399.1603393555    186.6666717529     -8.2406921387     -8.2406921387
    399.2652893066    213.3333282471     -8.2119750977     -8.2119750977
    379.1183471680    213.3333282471     -9.1486492157     -9.1486492157
    378.9924011230    186.6666717529     -9.2680053711     -9.2680053711
    399.2652893066    213.3333282471     -8.2119750977     -8.2119750977
    399.3702392578    240.0000000000     -8.2407646179     -8.2407646179
    379.2442932129    240.0000000000     -9.1103391647     -9.1103391647
    379.1183471680    213.3333282471     -9.1486492157     -9.1486492157
    399.3702392578    240.0000000000     -8.2407646179     -8.2407646179
    399.4752197266    266.6666564941     -8.2594318390     -8.2594318390
    379.3702392578    266.6666564941     -9.1284122467     -9.1284122467
    379.2442932129    240.0000000000     -9.1103391647     -9.1103391647
    399.4752197266    266.6666564941     -8.2594318390     -8.2594318390
    399.5801696777    293.3333435059     -8.2562351227     -8.2562351227
    379.4961853027    293.3333435059     -9.1440649033     -9.1440649033
    379.3702392578    266.6666564941     -9.1284122467     -9.1284122467
    399.5801696777    293.3333435059     -8.2562351227     -8.2562351227
    399.6851196289    320.0000000000     -8.2476720810     -8.2476720810
    379.6221618652    320.0000000000     -9.1451597214     -9.1451597214
    379.4961853027    293.3333435059     -9.1440649033     -9.1440649033
    399.6851196289    320.0000000000     -8.2476720810     -8.2476720810
    399.7900695801    346.6666564941     -8.2410545349     -8.2410545349
    379.7481079102    346.6666564941     -9.1423301697     -9.1423301697
    379.6221618652    320.0000000000     -9.1451597214     -9.1451597214
    399.7900695801    346.6666564941     -8.2410545349     -8.2410545349
    399.8950500488    373.3333435059     -8.2349777222     -8.2349777222
    379.8740539551    373.3333435059     -9.1400871277     -9.1400871277
    379.7481079102    346.6666564941     -9.1423301697     -9.1423301697
    399.8950500488    373.3333435059     -8.2349777222     -8.2349777222
    400.0000000000    400.0000000000     -8.2349777222     -8.2349777222
    380.0000000000    400.0000000000     -9.1400871277     -9.1400871277
    379.8740539551    373.3333435059     -9.1400871277     -9.1400871277
    378.1107482910      0.0000000000     -8.3538951874     -8.3538951874
    378.2366943359     26.6666698456     -8.3538951874     -8.3538951874
    357.9428100586     26.6666698456     -8.8154954910     -8.8154954910
    357.7958679199      0.0000000000     -8.8154954910     -8.8154954910
    378.2366943359     26.6666698456     -8.3538951874     -8.3538951874
    378.3626403809     53.3333282471     -8.4775104523     -8.4775104523
    358.0897521973     53.3333282471     -8.5490245819     -8.5490245819
    357.9428100586     26.6666698456     -8.8154954910     -8.8154954910
    378.3626403809     53.3333282471     -8.4775104523     -8.4775104523
    378.4885864258     80.0000000000     -8.7134723663     -8.7134723663
    358.2366943359     80.0000000000     -8.2966222763     -8.2966222763
    358.0897521973     53.3333282471     -8.5490245819     -8.5490245819
    378.4885864258     80.0000000000     -8.7134723663     -8.7134723663
    378.6145629883    106.6666717529     -9.0201902390     -9.0201902390
    358.3836364746    106.6666717529     -8.2541694641     -8.2541694641
    358.2366943359     80.0000000000     -8.2966222763     -8.2966222763
    378.6145629883    106.6666717529     -9.0201902390     -9.0201902390
    378.7405090332    133.3333282471     -9.2760791779     -9.2760791779
    358.5305786133    133.3333282471     -8.4953250885     -8.4953250885
    358.3836364746    106.6666717529     -8.2541694641     -8.2541694641
    378.7405090332    133.3333282471     -9.2760791779     -9.2760791779
    378.8664550781    160.0000000000     -9.3581676483     -9.3581676483
    358.6775207520    160.0000000000     -8.8739395142     -8.8739395142
    358.5305786133    133.3333282471     -8.4953250885     -8.4953250885
    378.8664550781    160.0000000000     -9.3581676483     -9.3581676483
    378.9924011230    186.6666717529     -9.2680053711     -9.2680053711
    358.8244628906    186.6666717529     -9.1283493042     -9.1283493042
    358.6775207520    160.0000000000     -8.8739395142     -8.8739395142
    378.9924011230    186.6666717529     -9.2680053711     -9.2680053711
    379.1183471680    213.3333282471     -9.1486492157     -9.1486492157
    358.9714050293    213.3333282471     -9.1505670547     -9.1505670547
    358.8244628906    186.6666717529     -9.1283493042     -9.1283493042
    379.1183471680    213.3333282471     -9.1486492157     -9.1486492157
    379.2442932129    240.0000000000     -9.1103391647     -9.1103391647
    359.1183471680    240.0000000000     -9.0720348358     -9.0720348358
    358.9714050293    213.3333282471     -9.1505670547     -9.1505670547
    379.2442932129    240.0000000000     -9.1103391647     -9.1103391647
    379.3702392578    266.6666564941     -9.1284122467     -9.1284122467
    359.2652893066    266.6666564941     -9.0348501205     -9.0348501205
    359.1183471680    240.0000000000     -9.0720348358     -9.0720348358
    379.3702392578    266.6666564941     -9.1284122467     -9.1284122467
    379.4961853027    293.3333435059     -9.1440649033     -9.1440649033
    359.4122314453    293.3333435059     -9.0454273224     -9.0454273224
    359.2652893066    266.6666564941     -9.0348501205     -9.0348501205
    379.4961853027    293.3333435059     -9.1440649033     -9.1440649033
    379.6221618652    320.0000000000     -9.1451597214     -9.1451597214
    359.5591735840    320.0000000000     -9.0608625412     -9.0608625412
    359.4122314453    293.3333435059     -9.0454273224     -9.0454273224