 VARIABLES= "X","Y","Z","yita"  
ZONE N=                                        3000 E=                              750 F=FEPOINT, ET=QUADRILATERAL
    500.0000000000      0.0000000000      3.7095823288      3.7095823288
    500.0000000000     26.6666698456      3.7095823288      3.7095823288
    479.7061157227     26.6666698456      3.7095823288      3.7095823288
    479.6851196289      0.0000000000      3.7095823288      3.7095823288
    500.0000000000     26.6666698456      3.7095823288      3.7095823288
    500.0000000000     53.3333282471      3.7128975391      3.7128975391
    479.7271118164     53.3333282471      3.7128975391      3.7128975391
    479.7061157227     26.6666698456      3.7095823288      3.7095823288
    500.0000000000     53.3333282471      3.7128975391      3.7128975391
    500.0000000000     80.0000000000      3.7146599293      3.7146599293
    479.7481079102     80.0000000000      3.7146599293      3.7146599293
    479.7271118164     53.3333282471      3.7128975391      3.7128975391
    500.0000000000     80.0000000000      3.7146599293      3.7146599293
    500.0000000000    106.6666717529      3.7163448334      3.7163448334
    479.7691040039    106.6666717529      3.7163448334      3.7163448334
    479.7481079102     80.0000000000      3.7146599293      3.7146599293
    500.0000000000    106.6666717529      3.7163448334      3.7163448334
    500.0000000000    133.3333282471      3.7196149826      3.7196149826
    479.7900695801    133.3333282471      3.7196149826      3.7196149826
    479.7691040039    106.6666717529      3.7163448334      3.7163448334
    500.0000000000    133.3333282471      3.7196149826      3.7196149826
    500.0000000000    160.0000000000      3.7231125832      3.7231125832
    479.8110656738    160.0000000000      3.7231125832      3.7231125832
    479.7900695801    133.3333282471      3.7196149826      3.7196149826
    500.0000000000    160.0000000000      3.7231125832      3.7231125832
    500.0000000000    186.6666717529      3.7264575958      3.7264575958
    479.8320617676    186.6666717529      3.7264575958      3.7264575958
    479.8110656738    160.0000000000      3.7231125832      3.7231125832
    500.0000000000    186.6666717529      3.7264575958      3.7264575958
    500.0000000000    213.3333282471      3.7296626568      3.7296626568
    479.8530578613    213.3333282471      3.7296626568      3.7296626568
    479.8320617676    186.6666717529      3.7264575958      3.7264575958
    500.0000000000    213.3333282471      3.7296626568      3.7296626568
    500.0000000000    240.0000000000      3.7339673042      3.7339673042
    479.8740539551    240.0000000000      3.7339673042      3.7339673042
    479.8530578613    213.3333282471      3.7296626568      3.7296626568
    500.0000000000    240.0000000000      3.7339673042      3.7339673042
    500.0000000000    266.6666564941      3.7383623123      3.7383623123
    479.8950500488    266.6666564941      3.7383623123      3.7383623123
    479.8740539551    240.0000000000      3.7339673042      3.7339673042
    500.0000000000    266.6666564941      3.7383623123      3.7383623123
    500.0000000000    293.3333435059      3.7416949272      3.7416949272
    479.9160156250    293.3333435059      3.7416949272      3.7416949272
    479.8950500488    266.6666564941      3.7383623123      3.7383623123
    500.0000000000    293.3333435059      3.7416949272      3.7416949272
    500.0000000000    320.0000000000      3.7453250885      3.7453250885
    479.9370422363    320.0000000000      3.7453250885      3.7453250885
    479.9160156250    293.3333435059      3.7416949272      3.7416949272
    500.0000000000    320.0000000000      3.7453250885      3.7453250885
    500.0000000000    346.6666564941      3.7489676476      3.7489676476
    479.9580078125    346.6666564941      3.7489676476      3.7489676476
    479.9370422363    320.0000000000      3.7453250885      3.7453250885
    500.0000000000    346.6666564941      3.7489676476      3.7489676476
    500.0000000000    373.3333435059      3.7522149086      3.7522149086
    479.9790039062    373.3333435059      3.7522149086      3.7522149086
    479.9580078125    346.6666564941      3.7489676476      3.7489676476
    500.0000000000    373.3333435059      3.7522149086      3.7522149086
    500.0000000000    400.0000000000      3.7522149086      3.7522149086
    480.0000000000    400.0000000000      3.7522149086      3.7522149086
    479.9790039062    373.3333435059      3.7522149086      3.7522149086
    479.6851196289      0.0000000000      3.7095823288      3.7095823288
    479.7061157227     26.6666698456      3.7095823288      3.7095823288
    459.4122314453     26.6666698456      0.7530050278      0.7530050278
    459.3702392578      0.0000000000      0.7530050278      0.7530050278
    479.7061157227     26.6666698456      3.7095823288      3.7095823288
    479.7271118164     53.3333282471      3.7128975391      3.7128975391
    459.4542236328     53.3333282471      0.7568899393      0.7568899393
    459.4122314453     26.6666698456      0.7530050278      0.7530050278
    479.7271118164     53.3333282471      3.7128975391      3.7128975391
    479.7481079102     80.0000000000      3.7146599293      3.7146599293
    459.4961853027     80.0000000000      0.7603425384      0.7603425384
    459.4542236328     53.3333282471      0.7568899393      0.7568899393
    479.7481079102     80.0000000000      3.7146599293      3.7146599293
    479.7691040039    106.6666717529      3.7163448334      3.7163448334
    459.5381774902    106.6666717529      0.7649174929      0.7649174929
    459.4961853027     80.0000000000      0.7603425384      0.7603425384
    479.7691040039    106.6666717529      3.7163448334      3.7163448334
    479.7900695801    133.3333282471      3.7196149826      3.7196149826
    459.5801696777    133.3333282471      0.7717950344      0.7717950344
    459.5381774902    106.6666717529      0.7649174929      0.7649174929
    479.7900695801    133.3333282471      3.7196149826      3.7196149826
    479.8110656738    160.0000000000      3.7231125832      3.7231125832
    459.6221618652    160.0000000000      0.7808324695      0.7808324695
    459.5801696777    133.3333282471      0.7717950344      0.7717950344
    479.8110656738    160.0000000000      3.7231125832      3.7231125832
    479.8320617676    186.6666717529      3.7264575958      3.7264575958
    459.6641235352    186.6666717529      0.7906474471      0.7906474471
    459.6221618652    160.0000000000      0.7808324695      0.7808324695
    479.8320617676    186.6666717529      3.7264575958      3.7264575958
    479.8530578613    213.3333282471      3.7296626568      3.7296626568
    459.7061157227    213.3333282471      0.7995650172      0.7995650172
    459.6641235352    186.6666717529      0.7906474471      0.7906474471
    479.8530578613    213.3333282471      3.7296626568      3.7296626568
    479.8740539551    240.0000000000      3.7339673042      3.7339673042
    459.7481079102    240.0000000000      0.8068124652      0.8068124652
    459.7061157227    213.3333282471      0.7995650172      0.7995650172
    479.8740539551    240.0000000000      3.7339673042      3.7339673042
    479.8950500488    266.6666564941      3.7383623123      3.7383623123
    459.7900695801    266.6666564941      0.8129474521      0.8129474521
    459.7481079102    240.0000000000      0.8068124652      0.8068124652
    479.8950500488    266.6666564941      3.7383623123      3.7383623123
    479.9160156250    293.3333435059      3.7416949272      3.7416949272
    459.8320617676    293.3333435059      0.8189824820      0.8189824820
    459.7900695801    266.6666564941      0.8129474521      0.8129474521
    479.9160156250    293.3333435059      3.7416949272      3.7416949272
    479.9370422363    320.0000000000      3.7453250885      3.7453250885
    459.8740539551    320.0000000000      0.8253400326      0.8253400326
    459.8320617676    293.3333435059      0.8189824820      0.8189824820
    479.9370422363    320.0000000000      3.7453250885      3.7453250885
    479.9580078125    346.6666564941      3.7489676476      3.7489676476
    459.9160156250    346.6666564941      0.8318499327      0.8318499327
    459.8740539551    320.0000000000      0.8253400326      0.8253400326
    479.9580078125    346.6666564941      3.7489676476      3.7489676476
    479.9790039062    373.3333435059      3.7522149086      3.7522149086
    459.9580078125    373.3333435059      0.8383374214      0.8383374214
    459.9160156250    346.6666564941      0.8318499327      0.8318499327
    479.9790039062    373.3333435059      3.7522149086      3.7522149086
    480.0000000000    400.0000000000      3.7522149086      3.7522149086
    460.0000000000    400.0000000000      0.8383374214      0.8383374214
    459.9580078125    373.3333435059      0.8383374214      0.8383374214
    459.3702392578      0.0000000000      0.7530050278      0.7530050278
    459.4122314453     26.6666698456      0.7530050278      0.7530050278
    439.1183471680     26.6666698456     -2.2569875717     -2.2569875717
    439.0553588867      0.0000000000     -2.2569875717     -2.2569875717
    459.4122314453     26.6666698456      0.7530050278      0.7530050278
    459.4542236328     53.3333282471      0.7568899393      0.7568899393
    439.1813049316     53.3333282471     -2.2418525219     -2.2418525219
    439.1183471680     26.6666698456     -2.2569875717     -2.2569875717
    459.4542236328     53.3333282471      0.7568899393      0.7568899393
    459.4961853027     80.0000000000      0.7603425384      0.7603425384
    439.2442932129     80.0000000000     -2.2273550034     -2.2273550034
    439.1813049316     53.3333282471     -2.2418525219     -2.2418525219
    459.4961853027     80.0000000000      0.7603425384      0.7603425384
    459.5381774902    106.6666717529      0.7649174929      0.7649174929
    439.3072814941    106.6666717529     -2.2184500694     -2.2184500694
    439.2442932129     80.0000000000     -2.2273550034     -2.2273550034
    459.5381774902    106.6666717529      0.7649174929      0.7649174929
    459.5801696777    133.3333282471      0.7717950344      0.7717950344
    439.3702392578    133.3333282471     -2.2179899216     -2.2179899216
    439.3072814941    106.6666717529     -2.2184500694     -2.2184500694
    459.5801696777    133.3333282471      0.7717950344      0.7717950344
    459.6221618652    160.0000000000      0.7808324695      0.7808324695
    439.4332275391    160.0000000000     -2.2237324715     -2.2237324715
    439.3702392578    133.3333282471     -2.2179899216     -2.2179899216
    459.6221618652    160.0000000000      0.7808324695      0.7808324695
    459.6641235352    186.6666717529      0.7906474471      0.7906474471
    439.4961853027    186.6666717529     -2.2287502289     -2.2287502289
    439.4332275391    160.0000000000     -2.2237324715     -2.2237324715
    459.6641235352    186.6666717529      0.7906474471      0.7906474471
    459.7061157227    213.3333282471      0.7995650172      0.7995650172
    439.5591735840    213.3333282471     -2.2263176441     -2.2263176441
    439.4961853027    186.6666717529     -2.2287502289     -2.2287502289
    459.7061157227    213.3333282471      0.7995650172      0.7995650172
    459.7481079102    240.0000000000      0.8068124652      0.8068124652
    439.6221618652    240.0000000000     -2.2154200077     -2.2154200077
    439.5591735840    213.3333282471     -2.2263176441     -2.2263176441
    459.7481079102    240.0000000000      0.8068124652      0.8068124652
    459.7900695801    266.6666564941      0.8129474521      0.8129474521
    439.6851196289    266.6666564941     -2.2015750408     -2.2015750408
    439.6221618652    240.0000000000     -2.2154200077     -2.2154200077
    459.7900695801    266.6666564941      0.8129474521      0.8129474521
    459.8320617676    293.3333435059      0.8189824820      0.8189824820
    439.7481079102    293.3333435059     -2.1903173923     -2.1903173923
    439.6851196289    266.6666564941     -2.2015750408     -2.2015750408
    459.8320617676    293.3333435059      0.8189824820      0.8189824820
    459.8740539551    320.0000000000      0.8253400326      0.8253400326
    439.8110656738    320.0000000000     -2.1818275452     -2.1818275452
    439.7481079102    293.3333435059     -2.1903173923     -2.1903173923
    459.8740539551    320.0000000000      0.8253400326      0.8253400326
    459.9160156250    346.6666564941      0.8318499327      0.8318499327
    439.8740539551    346.6666564941     -2.1736800671     -2.1736800671
    439.8110656738    320.0000000000     -2.1818275452     -2.1818275452
    459.9160156250    346.6666564941      0.8318499327      0.8318499327
    459.9580078125    373.3333435059      0.8383374214      0.8383374214
    439.9370422363    373.3333435059     -2.1648898125     -2.1648898125
    439.8740539551    346.6666564941     -2.1736800671     -2.1736800671
    459.9580078125    373.3333435059      0.8383374214      0.8383374214
    460.0000000000    400.0000000000      0.8383374214      0.8383374214
    440.0000000000    400.0000000000     -2.1648898125     -2.1648898125
    439.9370422363    373.3333435059     -2.1648898125     -2.1648898125
    439.0553588867      0.0000000000     -2.2569875717     -2.2569875717
    439.1183471680     26.6666698456     -2.2569875717     -2.2569875717
    418.8244628906     26.6666698456     -5.2066998482     -5.2066998482
    418.7405090332      0.0000000000     -5.2066998482     -5.2066998482
    439.1183471680     26.6666698456     -2.2569875717     -2.2569875717
    439.1813049316     53.3333282471     -2.2418525219     -2.2418525219
    418.9084167480     53.3333282471     -5.2979373932     -5.2979373932
    418.8244628906     26.6666698456     -5.2066998482     -5.2066998482
    439.1813049316     53.3333282471     -2.2418525219     -2.2418525219
    439.2442932129     80.0000000000     -2.2273550034     -2.2273550034
    418.9924011230     80.0000000000     -5.3981924057     -5.3981924057
    418.9084167480     53.3333282471     -5.2979373932     -5.2979373932
    439.2442932129     80.0000000000     -2.2273550034     -2.2273550034
    439.3072814941    106.6666717529     -2.2184500694     -2.2184500694
    419.0763549805    106.6666717529     -5.4399075508     -5.4399075508
    418.9924011230     80.0000000000     -5.3981924057     -5.3981924057
    439.3072814941    106.6666717529     -2.2184500694     -2.2184500694
    439.3702392578    133.3333282471     -2.2179899216     -2.2179899216
    419.1603393555    133.3333282471     -5.3750500679     -5.3750500679
    419.0763549805    106.6666717529     -5.4399075508     -5.4399075508
    439.3702392578    133.3333282471     -2.2179899216     -2.2179899216
    439.4332275391    160.0000000000     -2.2237324715     -2.2237324715
    419.2442932129    160.0000000000     -5.2161073685     -5.2161073685
    419.1603393555    133.3333282471     -5.3750500679     -5.3750500679
    439.4332275391    160.0000000000     -2.2237324715     -2.2237324715
    439.4961853027    186.6666717529     -2.2287502289     -2.2287502289
    419.3282775879    186.6666717529     -5.0394725800     -5.0394725800
    419.2442932129    160.0000000000     -5.2161073685     -5.2161073685
    439.4961853027    186.6666717529     -2.2287502289     -2.2287502289
    439.5591735840    213.3333282471     -2.2263176441     -2.2263176441
    419.4122314453    213.3333282471     -4.9325647354     -4.9325647354
    419.3282775879    186.6666717529     -5.0394725800     -5.0394725800
    439.5591735840    213.3333282471     -2.2263176441     -2.2263176441
    439.6221618652    240.0000000000     -2.2154200077     -2.2154200077
    419.4961853027    240.0000000000     -4.9237875938     -4.9237875938
    419.4122314453    213.3333282471     -4.9325647354     -4.9325647354
    439.6221618652    240.0000000000     -2.2154200077     -2.2154200077
    439.6851196289    266.6666564941     -2.2015750408     -2.2015750408
    419.5801696777    266.6666564941     -4.9610276222     -4.9610276222
    419.4961853027    240.0000000000     -4.9237875938     -4.9237875938
    439.6851196289    266.6666564941     -2.2015750408     -2.2015750408
    439.7481079102    293.3333435059     -2.1903173923     -2.1903173923
    419.6641235352    293.3333435059     -4.9795398712     -4.9795398712
    419.5801696777    266.6666564941     -4.9610276222     -4.9610276222
    439.7481079102    293.3333435059     -2.1903173923     -2.1903173923
    439.8110656738    320.0000000000     -2.1818275452     -2.1818275452
    419.7481079102    320.0000000000     -4.9689474106     -4.9689474106
    419.6641235352    293.3333435059     -4.9795398712     -4.9795398712
    439.8110656738    320.0000000000     -2.1818275452     -2.1818275452
    439.8740539551    346.6666564941     -2.1736800671     -2.1736800671
    419.8320617676    346.6666564941     -4.9516801834     -4.9516801834
    419.7481079102    320.0000000000     -4.9689474106     -4.9689474106
    439.8740539551    346.6666564941     -2.1736800671     -2.1736800671
    439.9370422363    373.3333435059     -2.1648898125     -2.1648898125
    419.9160156250    373.3333435059     -4.9389624596     -4.9389624596
    419.8320617676    346.6666564941     -4.9516801834     -4.9516801834
    439.9370422363    373.3333435059     -2.1648898125     -2.1648898125
    440.0000000000    400.0000000000     -2.1648898125     -2.1648898125
    420.0000000000    400.0000000000     -4.9389624596     -4.9389624596
    419.9160156250    373.3333435059     -4.9389624596     -4.9389624596
    418.7405090332      0.0000000000     -5.2066998482     -5.2066998482
    418.8244628906     26.6666698456     -5.2066998482     -5.2066998482
    398.5305786133     26.6666698456     -6.5344824791     -6.5344824791
    398.4256286621      0.0000000000     -6.5344824791     -6.5344824791
    418.8244628906     26.6666698456     -5.2066998482     -5.2066998482
    418.9084167480     53.3333282471     -5.2979373932     -5.2979373932
    398.6355285645     53.3333282471     -6.8796248436     -6.8796248436
    398.5305786133     26.6666698456     -6.5344824791     -6.5344824791
    418.9084167480     53.3333282471     -5.2979373932     -5.2979373932
    418.9924011230     80.0000000000     -5.3981924057     -5.3981924057
    398.7405090332     80.0000000000     -7.3746571541     -7.3746571541
    398.6355285645     53.3333282471     -6.8796248436     -6.8796248436
    418.9924011230     80.0000000000     -5.3981924057     -5.3981924057
    419.0763549805    106.6666717529     -5.4399075508     -5.4399075508
    398.8454589844    106.6666717529     -7.8571000099     -7.8571000099
    398.7405090332     80.0000000000     -7.3746571541     -7.3746571541
    419.0763549805    106.6666717529     -5.4399075508     -5.4399075508
    419.1603393555    133.3333282471     -5.3750500679     -5.3750500679
    398.9504089355    133.3333282471     -8.1159477234     -8.1159477234
    398.8454589844    106.6666717529     -7.8571000099     -7.8571000099
    419.1603393555    133.3333282471     -5.3750500679     -5.3750500679
    419.2442932129    160.0000000000     -5.2161073685     -5.2161073685
    399.0553588867    160.0000000000     -8.0202894211     -8.0202894211
    398.9504089355    133.3333282471     -8.1159477234     -8.1159477234
    419.2442932129    160.0000000000     -5.2161073685     -5.2161073685
    419.3282775879    186.6666717529     -5.0394725800     -5.0394725800
    399.1603393555    186.6666717529     -7.6467351913     -7.6467351913
    399.0553588867    160.0000000000     -8.0202894211     -8.0202894211
    419.3282775879    186.6666717529     -5.0394725800     -5.0394725800
    419.4122314453    213.3333282471     -4.9325647354     -4.9325647354
    399.2652893066    213.3333282471     -7.2500200272     -7.2500200272
    399.1603393555    186.6666717529     -7.6467351913     -7.6467351913
    419.4122314453    213.3333282471     -4.9325647354     -4.9325647354
    419.4961853027    240.0000000000     -4.9237875938     -4.9237875938
    399.3702392578    240.0000000000     -7.0678997040     -7.0678997040
    399.2652893066    213.3333282471     -7.2500200272     -7.2500200272
    419.4961853027    240.0000000000     -4.9237875938     -4.9237875938
    419.5801696777    266.6666564941     -4.9610276222     -4.9610276222
    399.4752197266    266.6666564941     -7.1134271622     -7.1134271622
    399.3702392578    240.0000000000     -7.0678997040     -7.0678997040
    419.5801696777    266.6666564941     -4.9610276222     -4.9610276222
    419.6641235352    293.3333435059     -4.9795398712     -4.9795398712
    399.5801696777    293.3333435059     -7.2101802826     -7.2101802826
    399.4752197266    266.6666564941     -7.1134271622     -7.1134271622
    419.6641235352    293.3333435059     -4.9795398712     -4.9795398712
    419.7481079102    320.0000000000     -4.9689474106     -4.9689474106
    399.6851196289    320.0000000000     -7.2371001244     -7.2371001244
    399.5801696777    293.3333435059     -7.2101802826     -7.2101802826
    419.7481079102    320.0000000000     -4.9689474106     -4.9689474106
    419.8320617676    346.6666564941     -4.9516801834     -4.9516801834
    399.7900695801    346.6666564941     -7.2147402763     -7.2147402763
    399.6851196289    320.0000000000     -7.2371001244     -7.2371001244
    419.8320617676    346.6666564941     -4.9516801834     -4.9516801834
    419.9160156250    373.3333435059     -4.9389624596     -4.9389624596
    399.8950500488    373.3333435059     -7.1920447350     -7.1920447350
    399.7900695801    346.6666564941     -7.2147402763     -7.2147402763
    419.9160156250    373.3333435059     -4.9389624596     -4.9389624596
    420.0000000000    400.0000000000     -4.9389624596     -4.9389624596
    400.0000000000    400.0000000000     -7.1920447350     -7.1920447350
    399.8950500488    373.3333435059     -7.1920447350     -7.1920447350
    398.4256286621      0.0000000000     -6.5344824791     -6.5344824791
    398.5305786133     26.6666698456     -6.5344824791     -6.5344824791
    378.2366943359     26.6666698456     -6.7670946121     -6.7670946121
    378.1107482910      0.0000000000     -6.7670946121     -6.7670946121
    398.5305786133     26.6666698456     -6.5344824791     -6.5344824791
    398.6355285645     53.3333282471     -6.8796248436     -6.8796248436
    378.3626403809     53.3333282471     -6.7957868576     -6.7957868576
    378.2366943359     26.6666698456     -6.7670946121     -6.7670946121
    398.6355285645     53.3333282471     -6.8796248436     -6.8796248436
    398.7405090332     80.0000000000     -7.3746571541     -7.3746571541
    378.4885864258     80.0000000000     -7.0381793976     -7.0381793976
    378.3626403809     53.3333282471     -6.7957868576     -6.7957868576
    398.7405090332     80.0000000000     -7.3746571541     -7.3746571541
    398.8454589844    106.6666717529     -7.8571000099     -7.8571000099
    378.6145629883    106.6666717529     -7.6023626328     -7.6023626328
    378.4885864258     80.0000000000     -7.0381793976     -7.0381793976
    398.8454589844    106.6666717529     -7.8571000099     -7.8571000099
    398.9504089355    133.3333282471     -8.1159477234     -8.1159477234
    378.7405090332    133.3333282471     -8.3929681778     -8.3929681778
    378.6145629883    106.6666717529     -7.6023626328     -7.6023626328
    398.9504089355    133.3333282471     -8.1159477234     -8.1159477234
    399.0553588867    160.0000000000     -8.0202894211     -8.0202894211
    378.8664550781    160.0000000000     -9.0894222260     -9.0894222260
    378.7405090332    133.3333282471     -8.3929681778     -8.3929681778
    399.0553588867    160.0000000000     -8.0202894211     -8.0202894211
    399.1603393555    186.6666717529     -7.6467351913     -7.6467351913
    378.9924011230    186.6666717529     -9.3619651794     -9.3619651794
    378.8664550781    160.0000000000     -9.0894222260     -9.0894222260
    399.1603393555    186.6666717529     -7.6467351913     -7.6467351913
    399.2652893066    213.3333282471     -7.2500200272     -7.2500200272
    379.1183471680    213.3333282471     -9.1595125198     -9.1595125198
    378.9924011230    186.6666717529     -9.3619651794     -9.3619651794
    399.2652893066    213.3333282471     -7.2500200272     -7.2500200272
    399.3702392578    240.0000000000     -7.0678997040     -7.0678997040
    379.2442932129    240.0000000000     -8.7766075134     -8.7766075134
    379.1183471680    213.3333282471     -9.1595125198     -9.1595125198
    399.3702392578    240.0000000000     -7.0678997040     -7.0678997040
    399.4752197266    266.6666564941     -7.1134271622     -7.1134271622
    379.3702392578    266.6666564941     -8.5713367462     -8.5713367462
    379.2442932129    240.0000000000     -8.7766075134     -8.7766075134
    399.4752197266    266.6666564941     -7.1134271622     -7.1134271622
    399.5801696777    293.3333435059     -7.2101802826     -7.2101802826
    379.4961853027    293.3333435059     -8.6028270721     -8.6028270721
    379.3702392578    266.6666564941     -8.5713367462     -8.5713367462
    399.5801696777    293.3333435059     -7.2101802826     -7.2101802826
    399.6851196289    320.0000000000     -7.2371001244     -7.2371001244
    379.6221618652    320.0000000000     -8.6858081818     -8.6858081818
    379.4961853027    293.3333435059     -8.6028270721     -8.6028270721
    399.6851196289    320.0000000000     -7.2371001244     -7.2371001244
    399.7900695801    346.6666564941     -7.2147402763     -7.2147402763
    379.7481079102    346.6666564941     -8.7051401138     -8.7051401138
    379.6221618652    320.0000000000     -8.6858081818     -8.6858081818
    399.7900695801    346.6666564941     -7.2147402763     -7.2147402763
    399.8950500488    373.3333435059     -7.1920447350     -7.1920447350
    379.8740539551    373.3333435059     -8.6859722137     -8.6859722137
    379.7481079102    346.6666564941     -8.7051401138     -8.7051401138
    399.8950500488    373.3333435059     -7.1920447350     -7.1920447350
    400.0000000000    400.0000000000     -7.1920447350     -7.1920447350
    380.0000000000    400.0000000000     -8.6859722137     -8.6859722137
    379.8740539551    373.3333435059     -8.6859722137     -8.6859722137
    378.1107482910      0.0000000000     -6.7670946121     -6.7670946121
    378.2366943359     26.6666698456     -6.7670946121     -6.7670946121
    357.9428100586     26.6666698456    -10.1300802231    -10.1300802231
    357.7958679199      0.0000000000    -10.1300802231    -10.1300802231
    378.2366943359     26.6666698456     -6.7670946121     -6.7670946121
    378.3626403809     53.3333282471     -6.7957868576     -6.7957868576
    358.0897521973     53.3333282471     -9.3819675446     -9.3819675446
    357.9428100586     26.6666698456    -10.1300802231    -10.1300802231
    378.3626403809     53.3333282471     -6.7957868576     -6.7957868576
    378.4885864258     80.0000000000     -7.0381793976     -7.0381793976
    358.2366943359     80.0000000000     -8.3979501724     -8.3979501724
    358.0897521973     53.3333282471     -9.3819675446     -9.3819675446
    378.4885864258     80.0000000000     -7.0381793976     -7.0381793976
    378.6145629883    106.6666717529     -7.6023626328     -7.6023626328
    358.3836364746    106.6666717529     -7.5966777802     -7.5966777802
    358.2366943359     80.0000000000     -8.3979501724     -8.3979501724
    378.6145629883    106.6666717529     -7.6023626328     -7.6023626328
    378.7405090332    133.3333282471     -8.3929681778     -8.3929681778
    358.5305786133    133.3333282471     -7.4219126701     -7.4219126701
    358.3836364746    106.6666717529     -7.5966777802     -7.5966777802
    378.7405090332    133.3333282471     -8.3929681778     -8.3929681778
    378.8664550781    160.0000000000     -9.0894222260     -9.0894222260
    358.6775207520    160.0000000000     -7.9959578514     -7.9959578514
    358.5305786133    133.3333282471     -7.4219126701     -7.4219126701
    378.8664550781    160.0000000000     -9.0894222260     -9.0894222260
    378.9924011230    186.6666717529     -9.3619651794     -9.3619651794
    358.8244628906    186.6666717529     -8.9285202026     -8.9285202026
    358.6775207520    160.0000000000     -7.9959578514     -7.9959578514
    378.9924011230    186.6666717529     -9.3619651794     -9.3619651794
    379.1183471680    213.3333282471     -9.1595125198     -9.1595125198
    358.9714050293    213.3333282471     -9.5896129608     -9.5896129608
    358.8244628906    186.6666717529     -8.9285202026     -8.9285202026
    379.1183471680    213.3333282471     -9.1595125198     -9.1595125198
    379.2442932129    240.0000000000     -8.7766075134     -8.7766075134
    359.1183471680    240.0000000000     -9.6537675858     -9.6537675858
    358.9714050293    213.3333282471     -9.5896129608     -9.5896129608
    379.2442932129    240.0000000000     -8.7766075134     -8.7766075134
    379.3702392578    266.6666564941     -8.5713367462     -8.5713367462
    359.2652893066    266.6666564941     -9.3678951263     -9.3678951263
    359.1183471680    240.0000000000     -9.6537675858     -9.6537675858
    379.3702392578    266.6666564941     -8.5713367462     -8.5713367462
    379.4961853027    293.3333435059     -8.6028270721     -8.6028270721
    359.4122314453    293.3333435059     -9.1704607010     -9.1704607010
    359.2652893066    266.6666564941     -9.3678951263     -9.3678951263
    379.4961853027    293.3333435059     -8.6028270721     -8.6028270721
    379.6221618652    320.0000000000     -8.6858081818     -8.6858081818
    359.5591735840    320.0000000000     -9.1763248444     -9.1763248444
    359.4122314453    293.3333435059     -9.1704607010     -9.1704607010