 VARIABLES= "X","Y","Z","yita"  
ZONE N=                                        3000 E=                              750 F=FEPOINT, ET=QUADRILATERAL
    500.0000000000      0.0000000000     -7.9736304283     -7.9736304283
    500.0000000000     26.6666698456     -7.9736304283     -7.9736304283
    479.7061157227     26.6666698456     -7.9736304283     -7.9736304283
    479.6851196289      0.0000000000     -7.9736304283     -7.9736304283
    500.0000000000     26.6666698456     -7.9736304283     -7.9736304283
    500.0000000000     53.3333282471     -7.9764652252     -7.9764652252
    479.7271118164     53.3333282471     -7.9764652252     -7.9764652252
    479.7061157227     26.6666698456     -7.9736304283     -7.9736304283
    500.0000000000     53.3333282471     -7.9764652252     -7.9764652252
    500.0000000000     80.0000000000     -7.9746370316     -7.9746370316
    479.7481079102     80.0000000000     -7.9746370316     -7.9746370316
    479.7271118164     53.3333282471     -7.9764652252     -7.9764652252
    500.0000000000     80.0000000000     -7.9746370316     -7.9746370316
    500.0000000000    106.6666717529     -7.9731445312     -7.9731445312
    479.7691040039    106.6666717529     -7.9731445312     -7.9731445312
    479.7481079102     80.0000000000     -7.9746370316     -7.9746370316
    500.0000000000    106.6666717529     -7.9731445312     -7.9731445312
    500.0000000000    133.3333282471     -7.9766273499     -7.9766273499
    479.7900695801    133.3333282471     -7.9766273499     -7.9766273499
    479.7691040039    106.6666717529     -7.9731445312     -7.9731445312
    500.0000000000    133.3333282471     -7.9766273499     -7.9766273499
    500.0000000000    160.0000000000     -7.9764518738     -7.9764518738
    479.8110656738    160.0000000000     -7.9764518738     -7.9764518738
    479.7900695801    133.3333282471     -7.9766273499     -7.9766273499
    500.0000000000    160.0000000000     -7.9764518738     -7.9764518738
    500.0000000000    186.6666717529     -7.9756026268     -7.9756026268
    479.8320617676    186.6666717529     -7.9756026268     -7.9756026268
    479.8110656738    160.0000000000     -7.9764518738     -7.9764518738
    500.0000000000    186.6666717529     -7.9756026268     -7.9756026268
    500.0000000000    213.3333282471     -7.9782047272     -7.9782047272
    479.8530578613    213.3333282471     -7.9782047272     -7.9782047272
    479.8320617676    186.6666717529     -7.9756026268     -7.9756026268
    500.0000000000    213.3333282471     -7.9782047272     -7.9782047272
    500.0000000000    240.0000000000     -7.9811873436     -7.9811873436
    479.8740539551    240.0000000000     -7.9811873436     -7.9811873436
    479.8530578613    213.3333282471     -7.9782047272     -7.9782047272
    500.0000000000    240.0000000000     -7.9811873436     -7.9811873436
    500.0000000000    266.6666564941     -7.9840450287     -7.9840450287
    479.8950500488    266.6666564941     -7.9840450287     -7.9840450287
    479.8740539551    240.0000000000     -7.9811873436     -7.9811873436
    500.0000000000    266.6666564941     -7.9840450287     -7.9840450287
    500.0000000000    293.3333435059     -7.9865574837     -7.9865574837
    479.9160156250    293.3333435059     -7.9865574837     -7.9865574837
    479.8950500488    266.6666564941     -7.9840450287     -7.9840450287
    500.0000000000    293.3333435059     -7.9865574837     -7.9865574837
    500.0000000000    320.0000000000     -7.9893975258     -7.9893975258
    479.9370422363    320.0000000000     -7.9893975258     -7.9893975258
    479.9160156250    293.3333435059     -7.9865574837     -7.9865574837
    500.0000000000    320.0000000000     -7.9893975258     -7.9893975258
    500.0000000000    346.6666564941     -7.9922122955     -7.9922122955
    479.9580078125    346.6666564941     -7.9922122955     -7.9922122955
    479.9370422363    320.0000000000     -7.9893975258     -7.9893975258
    500.0000000000    346.6666564941     -7.9922122955     -7.9922122955
    500.0000000000    373.3333435059     -7.9944996834     -7.9944996834
    479.9790039062    373.3333435059     -7.9944996834     -7.9944996834
    479.9580078125    346.6666564941     -7.9922122955     -7.9922122955
    500.0000000000    373.3333435059     -7.9944996834     -7.9944996834
    500.0000000000    400.0000000000     -7.9944996834     -7.9944996834
    480.0000000000    400.0000000000     -7.9944996834     -7.9944996834
    479.9790039062    373.3333435059     -7.9944996834     -7.9944996834
    479.6851196289      0.0000000000     -7.9736304283     -7.9736304283
    479.7061157227     26.6666698456     -7.9736304283     -7.9736304283
    459.4122314453     26.6666698456     -6.0260024071     -6.0260024071
    459.3702392578      0.0000000000     -6.0260024071     -6.0260024071
    479.7061157227     26.6666698456     -7.9736304283     -7.9736304283
    479.7271118164     53.3333282471     -7.9764652252     -7.9764652252
    459.4542236328     53.3333282471     -6.0266623497     -6.0266623497
    459.4122314453     26.6666698456     -6.0260024071     -6.0260024071
    479.7271118164     53.3333282471     -7.9764652252     -7.9764652252
    479.7481079102     80.0000000000     -7.9746370316     -7.9746370316
    459.4961853027     80.0000000000     -6.0250625610     -6.0250625610
    459.4542236328     53.3333282471     -6.0266623497     -6.0266623497
    479.7481079102     80.0000000000     -7.9746370316     -7.9746370316
    479.7691040039    106.6666717529     -7.9731445312     -7.9731445312
    459.5381774902    106.6666717529     -6.0230503082     -6.0230503082
    459.4961853027     80.0000000000     -6.0250625610     -6.0250625610
    479.7691040039    106.6666717529     -7.9731445312     -7.9731445312
    479.7900695801    133.3333282471     -7.9766273499     -7.9766273499
    459.5801696777    133.3333282471     -6.0230603218     -6.0230603218
    459.5381774902    106.6666717529     -6.0230503082     -6.0230503082
    479.7900695801    133.3333282471     -7.9766273499     -7.9766273499
    479.8110656738    160.0000000000     -7.9764518738     -7.9764518738
    459.6221618652    160.0000000000     -6.0267524719     -6.0267524719
    459.5801696777    133.3333282471     -6.0230603218     -6.0230603218
    479.8110656738    160.0000000000     -7.9764518738     -7.9764518738
    479.8320617676    186.6666717529     -7.9756026268     -7.9756026268
    459.6641235352    186.6666717529     -6.0344371796     -6.0344371796
    459.6221618652    160.0000000000     -6.0267524719     -6.0267524719
    479.8320617676    186.6666717529     -7.9756026268     -7.9756026268
    479.8530578613    213.3333282471     -7.9782047272     -7.9782047272
    459.7061157227    213.3333282471     -6.0444774628     -6.0444774628
    459.6641235352    186.6666717529     -6.0344371796     -6.0344371796
    479.8530578613    213.3333282471     -7.9782047272     -7.9782047272
    479.8740539551    240.0000000000     -7.9811873436     -7.9811873436
    459.7481079102    240.0000000000     -6.0540299416     -6.0540299416
    459.7061157227    213.3333282471     -6.0444774628     -6.0444774628
    479.8740539551    240.0000000000     -7.9811873436     -7.9811873436
    479.8950500488    266.6666564941     -7.9840450287     -7.9840450287
    459.7900695801    266.6666564941     -6.0613522530     -6.0613522530
    459.7481079102    240.0000000000     -6.0540299416     -6.0540299416
    479.8950500488    266.6666564941     -7.9840450287     -7.9840450287
    479.9160156250    293.3333435059     -7.9865574837     -7.9865574837
    459.8320617676    293.3333435059     -6.0668373108     -6.0668373108
    459.7900695801    266.6666564941     -6.0613522530     -6.0613522530
    479.9160156250    293.3333435059     -7.9865574837     -7.9865574837
    479.9370422363    320.0000000000     -7.9893975258     -7.9893975258
    459.8740539551    320.0000000000     -6.0718927383     -6.0718927383
    459.8320617676    293.3333435059     -6.0668373108     -6.0668373108
    479.9370422363    320.0000000000     -7.9893975258     -7.9893975258
    479.9580078125    346.6666564941     -7.9922122955     -7.9922122955
    459.9160156250    346.6666564941     -6.0772848129     -6.0772848129
    459.8740539551    320.0000000000     -6.0718927383     -6.0718927383
    479.9580078125    346.6666564941     -7.9922122955     -7.9922122955
    479.9790039062    373.3333435059     -7.9944996834     -7.9944996834
    459.9580078125    373.3333435059     -6.0828852654     -6.0828852654
    459.9160156250    346.6666564941     -6.0772848129     -6.0772848129
    479.9790039062    373.3333435059     -7.9944996834     -7.9944996834
    480.0000000000    400.0000000000     -7.9944996834     -7.9944996834
    460.0000000000    400.0000000000     -6.0828852654     -6.0828852654
    459.9580078125    373.3333435059     -6.0828852654     -6.0828852654
    459.3702392578      0.0000000000     -6.0260024071     -6.0260024071
    459.4122314453     26.6666698456     -6.0260024071     -6.0260024071
    439.1183471680     26.6666698456     -3.3776049614     -3.3776049614
    439.0553588867      0.0000000000     -3.3776049614     -3.3776049614
    459.4122314453     26.6666698456     -6.0260024071     -6.0260024071
    459.4542236328     53.3333282471     -6.0266623497     -6.0266623497
    439.1813049316     53.3333282471     -3.4010601044     -3.4010601044
    439.1183471680     26.6666698456     -3.3776049614     -3.3776049614
    459.4542236328     53.3333282471     -6.0266623497     -6.0266623497
    459.4961853027     80.0000000000     -6.0250625610     -6.0250625610
    439.2442932129     80.0000000000     -3.4306001663     -3.4306001663
    439.1813049316     53.3333282471     -3.4010601044     -3.4010601044
    459.4961853027     80.0000000000     -6.0250625610     -6.0250625610
    459.5381774902    106.6666717529     -6.0230503082     -6.0230503082
    439.3072814941    106.6666717529     -3.4597027302     -3.4597027302
    439.2442932129     80.0000000000     -3.4306001663     -3.4306001663
    459.5381774902    106.6666717529     -6.0230503082     -6.0230503082
    459.5801696777    133.3333282471     -6.0230603218     -6.0230603218
    439.3702392578    133.3333282471     -3.4799025059     -3.4799025059
    439.3072814941    106.6666717529     -3.4597027302     -3.4597027302
    459.5801696777    133.3333282471     -6.0230603218     -6.0230603218
    459.6221618652    160.0000000000     -6.0267524719     -6.0267524719
    439.4332275391    160.0000000000     -3.4853374958     -3.4853374958
    439.3702392578    133.3333282471     -3.4799025059     -3.4799025059
    459.6221618652    160.0000000000     -6.0267524719     -6.0267524719
    459.6641235352    186.6666717529     -6.0344371796     -6.0344371796
    439.4961853027    186.6666717529     -3.4781074524     -3.4781074524
    439.4332275391    160.0000000000     -3.4853374958     -3.4853374958
    459.6641235352    186.6666717529     -6.0344371796     -6.0344371796
    459.7061157227    213.3333282471     -6.0444774628     -6.0444774628
    439.5591735840    213.3333282471     -3.4684000015     -3.4684000015
    439.4961853027    186.6666717529     -3.4781074524     -3.4781074524
    459.7061157227    213.3333282471     -6.0444774628     -6.0444774628
    459.7481079102    240.0000000000     -6.0540299416     -6.0540299416
    439.6221618652    240.0000000000     -3.4671852589     -3.4671852589
    439.5591735840    213.3333282471     -3.4684000015     -3.4684000015
    459.7481079102    240.0000000000     -6.0540299416     -6.0540299416
    459.7900695801    266.6666564941     -6.0613522530     -6.0613522530
    439.6851196289    266.6666564941     -3.4778149128     -3.4778149128
    439.6221618652    240.0000000000     -3.4671852589     -3.4671852589
    459.7900695801    266.6666564941     -6.0613522530     -6.0613522530
    459.8320617676    293.3333435059     -6.0668373108     -6.0668373108
    439.7481079102    293.3333435059     -3.4940247536     -3.4940247536
    439.6851196289    266.6666564941     -3.4778149128     -3.4778149128
    459.8320617676    293.3333435059     -6.0668373108     -6.0668373108
    459.8740539551    320.0000000000     -6.0718927383     -6.0718927383
    439.8110656738    320.0000000000     -3.5075776577     -3.5075776577
    439.7481079102    293.3333435059     -3.4940247536     -3.4940247536
    459.8740539551    320.0000000000     -6.0718927383     -6.0718927383
    459.9160156250    346.6666564941     -6.0772848129     -6.0772848129
    439.8740539551    346.6666564941     -3.5167374611     -3.5167374611
    439.8110656738    320.0000000000     -3.5075776577     -3.5075776577
    459.9160156250    346.6666564941     -6.0772848129     -6.0772848129
    459.9580078125    373.3333435059     -6.0828852654     -6.0828852654
    439.9370422363    373.3333435059     -3.5246925354     -3.5246925354
    439.8740539551    346.6666564941     -3.5167374611     -3.5167374611
    459.9580078125    373.3333435059     -6.0828852654     -6.0828852654
    460.0000000000    400.0000000000     -6.0828852654     -6.0828852654
    440.0000000000    400.0000000000     -3.5246925354     -3.5246925354
    439.9370422363    373.3333435059     -3.5246925354     -3.5246925354
    439.0553588867      0.0000000000     -3.3776049614     -3.3776049614
    439.1183471680     26.6666698456     -3.3776049614     -3.3776049614
    418.8244628906     26.6666698456     -0.9743900299     -0.9743900299
    418.7405090332      0.0000000000     -0.9743900299     -0.9743900299
    439.1183471680     26.6666698456     -3.3776049614     -3.3776049614
    439.1813049316     53.3333282471     -3.4010601044     -3.4010601044
    418.9084167480     53.3333282471     -0.7941925526     -0.7941925526
    418.8244628906     26.6666698456     -0.9743900299     -0.9743900299
    439.1813049316     53.3333282471     -3.4010601044     -3.4010601044
    439.2442932129     80.0000000000     -3.4306001663     -3.4306001663
    418.9924011230     80.0000000000     -0.5218024254     -0.5218024254
    418.9084167480     53.3333282471     -0.7941925526     -0.7941925526
    439.2442932129     80.0000000000     -3.4306001663     -3.4306001663
    439.3072814941    106.6666717529     -3.4597027302     -3.4597027302
    419.0763549805    106.6666717529     -0.2324849665     -0.2324849665
    418.9924011230     80.0000000000     -0.5218024254     -0.5218024254
    439.3072814941    106.6666717529     -3.4597027302     -3.4597027302
    439.3702392578    133.3333282471     -3.4799025059     -3.4799025059
    419.1603393555    133.3333282471     -0.0355024338     -0.0355024338
    419.0763549805    106.6666717529     -0.2324849665     -0.2324849665
    439.3702392578    133.3333282471     -3.4799025059     -3.4799025059
    439.4332275391    160.0000000000     -3.4853374958     -3.4853374958
    419.2442932129    160.0000000000     -0.0202199817     -0.0202199817
    419.1603393555    133.3333282471     -0.0355024338     -0.0355024338
    439.4332275391    160.0000000000     -3.4853374958     -3.4853374958
    439.4961853027    186.6666717529     -3.4781074524     -3.4781074524
    419.3282775879    186.6666717529     -0.1857299507     -0.1857299507
    419.2442932129    160.0000000000     -0.0202199817     -0.0202199817
    439.4961853027    186.6666717529     -3.4781074524     -3.4781074524
    439.5591735840    213.3333282471     -3.4684000015     -3.4684000015
    419.4122314453    213.3333282471     -0.4237824678     -0.4237824678
    419.3282775879    186.6666717529     -0.1857299507     -0.1857299507
    439.5591735840    213.3333282471     -3.4684000015     -3.4684000015
    439.6221618652    240.0000000000     -3.4671852589     -3.4671852589
    419.4961853027    240.0000000000     -0.5941550732     -0.5941550732
    419.4122314453    213.3333282471     -0.4237824678     -0.4237824678
    439.6221618652    240.0000000000     -3.4671852589     -3.4671852589
    439.6851196289    266.6666564941     -3.4778149128     -3.4778149128
    419.5801696777    266.6666564941     -0.6312725544     -0.6312725544
    419.4961853027    240.0000000000     -0.5941550732     -0.5941550732
    439.6851196289    266.6666564941     -3.4778149128     -3.4778149128
    439.7481079102    293.3333435059     -3.4940247536     -3.4940247536
    419.6641235352    293.3333435059     -0.5867649913     -0.5867649913
    419.5801696777    266.6666564941     -0.6312725544     -0.6312725544
    439.7481079102    293.3333435059     -3.4940247536     -3.4940247536
    439.8110656738    320.0000000000     -3.5075776577     -3.5075776577
    419.7481079102    320.0000000000     -0.5535801053     -0.5535801053
    419.6641235352    293.3333435059     -0.5867649913     -0.5867649913
    439.8110656738    320.0000000000     -3.5075776577     -3.5075776577
    439.8740539551    346.6666564941     -3.5167374611     -3.5167374611
    419.8320617676    346.6666564941     -0.5627925396     -0.5627925396
    419.7481079102    320.0000000000     -0.5535801053     -0.5535801053
    439.8740539551    346.6666564941     -3.5167374611     -3.5167374611
    439.9370422363    373.3333435059     -3.5246925354     -3.5246925354
    419.9160156250    373.3333435059     -0.5876975060     -0.5876975060
    419.8320617676    346.6666564941     -0.5627925396     -0.5627925396
    439.9370422363    373.3333435059     -3.5246925354     -3.5246925354
    440.0000000000    400.0000000000     -3.5246925354     -3.5246925354
    420.0000000000    400.0000000000     -0.5876975060     -0.5876975060
    419.9160156250    373.3333435059     -0.5876975060     -0.5876975060
    418.7405090332      0.0000000000     -0.9743900299     -0.9743900299
    418.8244628906     26.6666698456     -0.9743900299     -0.9743900299
    398.5305786133     26.6666698456      0.1087825000      0.1087825000
    398.4256286621      0.0000000000      0.1087825000      0.1087825000
    418.8244628906     26.6666698456     -0.9743900299     -0.9743900299
    418.9084167480     53.3333282471     -0.7941925526     -0.7941925526
    398.6355285645     53.3333282471      0.4448350072      0.4448350072
    398.5305786133     26.6666698456      0.1087825000      0.1087825000
    418.9084167480     53.3333282471     -0.7941925526     -0.7941925526
    418.9924011230     80.0000000000     -0.5218024254     -0.5218024254
    398.7405090332     80.0000000000      1.0819749832      1.0819749832
    398.6355285645     53.3333282471      0.4448350072      0.4448350072
    418.9924011230     80.0000000000     -0.5218024254     -0.5218024254
    419.0763549805    106.6666717529     -0.2324849665     -0.2324849665
    398.8454589844    106.6666717529      1.9784650803      1.9784650803
    398.7405090332     80.0000000000      1.0819749832      1.0819749832
    419.0763549805    106.6666717529     -0.2324849665     -0.2324849665
    419.1603393555    133.3333282471     -0.0355024338     -0.0355024338
    398.9504089355    133.3333282471      2.9111623764      2.9111623764
    398.8454589844    106.6666717529      1.9784650803      1.9784650803
    419.1603393555    133.3333282471     -0.0355024338     -0.0355024338
    419.2442932129    160.0000000000     -0.0202199817     -0.0202199817
    399.0553588867    160.0000000000      3.5323474407      3.5323474407
    398.9504089355    133.3333282471      2.9111623764      2.9111623764
    419.2442932129    160.0000000000     -0.0202199817     -0.0202199817
    419.3282775879    186.6666717529     -0.1857299507     -0.1857299507
    399.1603393555    186.6666717529      3.5879650116      3.5879650116
    399.0553588867    160.0000000000      3.5323474407      3.5323474407
    419.3282775879    186.6666717529     -0.1857299507     -0.1857299507
    419.4122314453    213.3333282471     -0.4237824678     -0.4237824678
    399.2652893066    213.3333282471      3.1451499462      3.1451499462
    399.1603393555    186.6666717529      3.5879650116      3.5879650116
    419.4122314453    213.3333282471     -0.4237824678     -0.4237824678
    419.4961853027    240.0000000000     -0.5941550732     -0.5941550732
    399.3702392578    240.0000000000      2.5727798939      2.5727798939
    399.2652893066    213.3333282471      3.1451499462      3.1451499462
    419.4961853027    240.0000000000     -0.5941550732     -0.5941550732
    419.5801696777    266.6666564941     -0.6312725544     -0.6312725544
    399.4752197266    266.6666564941      2.2533249855      2.2533249855
    399.3702392578    240.0000000000      2.5727798939      2.5727798939
    419.5801696777    266.6666564941     -0.6312725544     -0.6312725544
    419.6641235352    293.3333435059     -0.5867649913     -0.5867649913
    399.5801696777    293.3333435059      2.2720749378      2.2720749378
    399.4752197266    266.6666564941      2.2533249855      2.2533249855
    419.6641235352    293.3333435059     -0.5867649913     -0.5867649913
    419.7481079102    320.0000000000     -0.5535801053     -0.5535801053
    399.6851196289    320.0000000000      2.4100575447      2.4100575447
    399.5801696777    293.3333435059      2.2720749378      2.2720749378
    419.7481079102    320.0000000000     -0.5535801053     -0.5535801053
    419.8320617676    346.6666564941     -0.5627925396     -0.5627925396
    399.7900695801    346.6666564941      2.4627876282      2.4627876282
    399.6851196289    320.0000000000      2.4100575447      2.4100575447
    419.8320617676    346.6666564941     -0.5627925396     -0.5627925396
    419.9160156250    373.3333435059     -0.5876975060     -0.5876975060
    399.8950500488    373.3333435059      2.4302299023      2.4302299023
    399.7900695801    346.6666564941      2.4627876282      2.4627876282
    419.9160156250    373.3333435059     -0.5876975060     -0.5876975060
    420.0000000000    400.0000000000     -0.5876975060     -0.5876975060
    400.0000000000    400.0000000000      2.4302299023      2.4302299023
    399.8950500488    373.3333435059      2.4302299023      2.4302299023
    398.4256286621      0.0000000000      0.1087825000      0.1087825000
    398.5305786133     26.6666698456      0.1087825000      0.1087825000
    378.2366943359     26.6666698456      3.7572250366      3.7572250366
    378.1107482910      0.0000000000      3.7572250366      3.7572250366
    398.5305786133     26.6666698456      0.1087825000      0.1087825000
    398.6355285645     53.3333282471      0.4448350072      0.4448350072
    378.3626403809     53.3333282471      3.3297123909      3.3297123909
    378.2366943359     26.6666698456      3.7572250366      3.7572250366
    398.6355285645     53.3333282471      0.4448350072      0.4448350072
    398.7405090332     80.0000000000      1.0819749832      1.0819749832
    378.4885864258     80.0000000000      2.9419925213      2.9419925213
    378.3626403809     53.3333282471      3.3297123909      3.3297123909
    398.7405090332     80.0000000000      1.0819749832      1.0819749832
    398.8454589844    106.6666717529      1.9784650803      1.9784650803
    378.6145629883    106.6666717529      2.9468474388      2.9468474388
    378.4885864258     80.0000000000      2.9419925213      2.9419925213
    398.8454589844    106.6666717529      1.9784650803      1.9784650803
    398.9504089355    133.3333282471      2.9111623764      2.9111623764
    378.7405090332    133.3333282471      3.5688550472      3.5688550472
    378.6145629883    106.6666717529      2.9468474388      2.9468474388
    398.9504089355    133.3333282471      2.9111623764      2.9111623764
    399.0553588867    160.0000000000      3.5323474407      3.5323474407
    378.8664550781    160.0000000000      4.6699523926      4.6699523926
    378.7405090332    133.3333282471      3.5688550472      3.5688550472
    399.0553588867    160.0000000000      3.5323474407      3.5323474407
    399.1603393555    186.6666717529      3.5879650116      3.5879650116
    378.9924011230    186.6666717529      5.7293448448      5.7293448448
    378.8664550781    160.0000000000      4.6699523926      4.6699523926
    399.1603393555    186.6666717529      3.5879650116      3.5879650116
    399.2652893066    213.3333282471      3.1451499462      3.1451499462
    379.1183471680    213.3333282471      6.1939172745      6.1939172745
    378.9924011230    186.6666717529      5.7293448448      5.7293448448
    399.2652893066    213.3333282471      3.1451499462      3.1451499462
    399.3702392578    240.0000000000      2.5727798939      2.5727798939
    379.2442932129    240.0000000000      5.9388647079      5.9388647079
    379.1183471680    213.3333282471      6.1939172745      6.1939172745
    399.3702392578    240.0000000000      2.5727798939      2.5727798939
    399.4752197266    266.6666564941      2.2533249855      2.2533249855
    379.3702392578    266.6666564941      5.3673424721      5.3673424721
    379.2442932129    240.0000000000      5.9388647079      5.9388647079
    399.4752197266    266.6666564941      2.2533249855      2.2533249855
    399.5801696777    293.3333435059      2.2720749378      2.2720749378
    379.4961853027    293.3333435059      5.0152125359      5.0152125359
    379.3702392578    266.6666564941      5.3673424721      5.3673424721
    399.5801696777    293.3333435059      2.2720749378      2.2720749378
    399.6851196289    320.0000000000      2.4100575447      2.4100575447
    379.6221618652    320.0000000000      5.0267448425      5.0267448425
    379.4961853027    293.3333435059      5.0152125359      5.0152125359
    399.6851196289    320.0000000000      2.4100575447      2.4100575447
    399.7900695801    346.6666564941      2.4627876282      2.4627876282
    379.7481079102    346.6666564941      5.1513848305      5.1513848305
    379.6221618652    320.0000000000      5.0267448425      5.0267448425
    399.7900695801    346.6666564941      2.4627876282      2.4627876282
    399.8950500488    373.3333435059      2.4302299023      2.4302299023
    379.8740539551    373.3333435059      5.1889948845      5.1889948845
    379.7481079102    346.6666564941      5.1513848305      5.1513848305
    399.8950500488    373.3333435059      2.4302299023      2.4302299023
    400.0000000000    400.0000000000      2.4302299023      2.4302299023
    380.0000000000    400.0000000000      5.1889948845      5.1889948845
    379.8740539551    373.3333435059      5.1889948845      5.1889948845
    378.1107482910      0.0000000000      3.7572250366      3.7572250366
    378.2366943359     26.6666698456      3.7572250366      3.7572250366
    357.9428100586     26.6666698456     11.2556924820     11.2556924820
    357.7958679199      0.0000000000     11.2556924820     11.2556924820
    378.2366943359     26.6666698456      3.7572250366      3.7572250366
    378.3626403809     53.3333282471      3.3297123909      3.3297123909
    358.0897521973     53.3333282471     10.4032020569     10.4032020569
    357.9428100586     26.6666698456     11.2556924820     11.2556924820
    378.3626403809     53.3333282471      3.3297123909      3.3297123909
    378.4885864258     80.0000000000      2.9419925213      2.9419925213
    358.2366943359     80.0000000000      8.9566001892      8.9566001892
    358.0897521973     53.3333282471     10.4032020569     10.4032020569
    378.4885864258     80.0000000000      2.9419925213      2.9419925213
    378.6145629883    106.6666717529      2.9468474388      2.9468474388
    358.3836364746    106.6666717529      7.1724972725      7.1724972725
    358.2366943359     80.0000000000      8.9566001892      8.9566001892
    378.6145629883    106.6666717529      2.9468474388      2.9468474388
    378.7405090332    133.3333282471      3.5688550472      3.5688550472
    358.5305786133    133.3333282471      5.6804327965      5.6804327965
    358.3836364746    106.6666717529      7.1724972725      7.1724972725
    378.7405090332    133.3333282471      3.5688550472      3.5688550472
    378.8664550781    160.0000000000      4.6699523926      4.6699523926
    358.6775207520    160.0000000000      5.1761445999      5.1761445999
    358.5305786133    133.3333282471      5.6804327965      5.6804327965
    378.8664550781    160.0000000000      4.6699523926      4.6699523926
    378.9924011230    186.6666717529      5.7293448448      5.7293448448
    358.8244628906    186.6666717529      5.8509550095      5.8509550095
    358.6775207520    160.0000000000      5.1761445999      5.1761445999
    378.9924011230    186.6666717529      5.7293448448      5.7293448448
    379.1183471680    213.3333282471      6.1939172745      6.1939172745
    358.9714050293    213.3333282471      7.1087350845      7.1087350845
    358.8244628906    186.6666717529      5.8509550095      5.8509550095
    379.1183471680    213.3333282471      6.1939172745      6.1939172745
    379.2442932129    240.0000000000      5.9388647079      5.9388647079
    359.1183471680    240.0000000000      8.0080680847      8.0080680847
    358.9714050293    213.3333282471      7.1087350845      7.1087350845
    379.2442932129    240.0000000000      5.9388647079      5.9388647079
    379.3702392578    266.6666564941      5.3673424721      5.3673424721
    359.2652893066    266.6666564941      8.0625572205      8.0625572205
    359.1183471680    240.0000000000      8.0080680847      8.0080680847
    379.3702392578    266.6666564941      5.3673424721      5.3673424721
    379.4961853027    293.3333435059      5.0152125359      5.0152125359
    359.4122314453    293.3333435059      7.6019449234      7.6019449234
    359.2652893066    266.6666564941      8.0625572205      8.0625572205
    379.4961853027    293.3333435059      5.0152125359      5.0152125359
    379.6221618652    320.0000000000      5.0267448425      5.0267448425
    359.5591735840    320.0000000000      7.2640047073      7.2640047073
    359.4122314453    293.3333435059      7.6019449234      7.6019449234