 VARIABLES= "X","Y","Z","yita"  
ZONE N=                                        3000 E=                              750 F=FEPOINT, ET=QUADRILATERAL
    500.0000000000      0.0000000000     -5.4775352478     -5.4775352478
    500.0000000000     26.6666698456     -5.4775352478     -5.4775352478
    479.7061157227     26.6666698456     -5.4775352478     -5.4775352478
    479.6851196289      0.0000000000     -5.4775352478     -5.4775352478
    500.0000000000     26.6666698456     -5.4775352478     -5.4775352478
    500.0000000000     53.3333282471     -5.4761900902     -5.4761900902
    479.7271118164     53.3333282471     -5.4761900902     -5.4761900902
    479.7061157227     26.6666698456     -5.4775352478     -5.4775352478
    500.0000000000     53.3333282471     -5.4761900902     -5.4761900902
    500.0000000000     80.0000000000     -5.4749698639     -5.4749698639
    479.7481079102     80.0000000000     -5.4749698639     -5.4749698639
    479.7271118164     53.3333282471     -5.4761900902     -5.4761900902
    500.0000000000     80.0000000000     -5.4749698639     -5.4749698639
    500.0000000000    106.6666717529     -5.4749898911     -5.4749898911
    479.7691040039    106.6666717529     -5.4749898911     -5.4749898911
    479.7481079102     80.0000000000     -5.4749698639     -5.4749698639
    500.0000000000    106.6666717529     -5.4749898911     -5.4749898911
    500.0000000000    133.3333282471     -5.4757475853     -5.4757475853
    479.7900695801    133.3333282471     -5.4757475853     -5.4757475853
    479.7691040039    106.6666717529     -5.4749898911     -5.4749898911
    500.0000000000    133.3333282471     -5.4757475853     -5.4757475853
    500.0000000000    160.0000000000     -5.4682378769     -5.4682378769
    479.8110656738    160.0000000000     -5.4682378769     -5.4682378769
    479.7900695801    133.3333282471     -5.4757475853     -5.4757475853
    500.0000000000    160.0000000000     -5.4682378769     -5.4682378769
    500.0000000000    186.6666717529     -5.4606428146     -5.4606428146
    479.8320617676    186.6666717529     -5.4606428146     -5.4606428146
    479.8110656738    160.0000000000     -5.4682378769     -5.4682378769
    500.0000000000    186.6666717529     -5.4606428146     -5.4606428146
    500.0000000000    213.3333282471     -5.4606704712     -5.4606704712
    479.8530578613    213.3333282471     -5.4606704712     -5.4606704712
    479.8320617676    186.6666717529     -5.4606428146     -5.4606428146
    500.0000000000    213.3333282471     -5.4606704712     -5.4606704712
    500.0000000000    240.0000000000     -5.4532799721     -5.4532799721
    479.8740539551    240.0000000000     -5.4532799721     -5.4532799721
    479.8530578613    213.3333282471     -5.4606704712     -5.4606704712
    500.0000000000    240.0000000000     -5.4532799721     -5.4532799721
    500.0000000000    266.6666564941     -5.4445476532     -5.4445476532
    479.8950500488    266.6666564941     -5.4445476532     -5.4445476532
    479.8740539551    240.0000000000     -5.4532799721     -5.4532799721
    500.0000000000    266.6666564941     -5.4445476532     -5.4445476532
    500.0000000000    293.3333435059     -5.4424376488     -5.4424376488
    479.9160156250    293.3333435059     -5.4424376488     -5.4424376488
    479.8950500488    266.6666564941     -5.4445476532     -5.4445476532
    500.0000000000    293.3333435059     -5.4424376488     -5.4424376488
    500.0000000000    320.0000000000     -5.4392623901     -5.4392623901
    479.9370422363    320.0000000000     -5.4392623901     -5.4392623901
    479.9160156250    293.3333435059     -5.4424376488     -5.4424376488
    500.0000000000    320.0000000000     -5.4392623901     -5.4392623901
    500.0000000000    346.6666564941     -5.4360423088     -5.4360423088
    479.9580078125    346.6666564941     -5.4360423088     -5.4360423088
    479.9370422363    320.0000000000     -5.4392623901     -5.4392623901
    500.0000000000    346.6666564941     -5.4360423088     -5.4360423088
    500.0000000000    373.3333435059     -5.4339323044     -5.4339323044
    479.9790039062    373.3333435059     -5.4339323044     -5.4339323044
    479.9580078125    346.6666564941     -5.4360423088     -5.4360423088
    500.0000000000    373.3333435059     -5.4339323044     -5.4339323044
    500.0000000000    400.0000000000     -5.4339323044     -5.4339323044
    480.0000000000    400.0000000000     -5.4339323044     -5.4339323044
    479.9790039062    373.3333435059     -5.4339323044     -5.4339323044
    479.6851196289      0.0000000000     -5.4775352478     -5.4775352478
    479.7061157227     26.6666698456     -5.4775352478     -5.4775352478
    459.4122314453     26.6666698456     -7.6145324707     -7.6145324707
    459.3702392578      0.0000000000     -7.6145324707     -7.6145324707
    479.7061157227     26.6666698456     -5.4775352478     -5.4775352478
    479.7271118164     53.3333282471     -5.4761900902     -5.4761900902
    459.4542236328     53.3333282471     -7.6145625114     -7.6145625114
    459.4122314453     26.6666698456     -7.6145324707     -7.6145324707
    479.7271118164     53.3333282471     -5.4761900902     -5.4761900902
    479.7481079102     80.0000000000     -5.4749698639     -5.4749698639
    459.4961853027     80.0000000000     -7.6138200760     -7.6138200760
    459.4542236328     53.3333282471     -7.6145625114     -7.6145625114
    479.7481079102     80.0000000000     -5.4749698639     -5.4749698639
    479.7691040039    106.6666717529     -5.4749898911     -5.4749898911
    459.5381774902    106.6666717529     -7.6089973450     -7.6089973450
    459.4961853027     80.0000000000     -7.6138200760     -7.6138200760
    479.7691040039    106.6666717529     -5.4749898911     -5.4749898911
    479.7900695801    133.3333282471     -5.4757475853     -5.4757475853
    459.5801696777    133.3333282471     -7.5978851318     -7.5978851318
    459.5381774902    106.6666717529     -7.6089973450     -7.6089973450
    479.7900695801    133.3333282471     -5.4757475853     -5.4757475853
    479.8110656738    160.0000000000     -5.4682378769     -5.4682378769
    459.6221618652    160.0000000000     -7.5813894272     -7.5813894272
    459.5801696777    133.3333282471     -7.5978851318     -7.5978851318
    479.8110656738    160.0000000000     -5.4682378769     -5.4682378769
    479.8320617676    186.6666717529     -5.4606428146     -5.4606428146
    459.6641235352    186.6666717529     -7.5641875267     -7.5641875267
    459.6221618652    160.0000000000     -7.5813894272     -7.5813894272
    479.8320617676    186.6666717529     -5.4606428146     -5.4606428146
    479.8530578613    213.3333282471     -5.4606704712     -5.4606704712
    459.7061157227    213.3333282471     -7.5518503189     -7.5518503189
    459.6641235352    186.6666717529     -7.5641875267     -7.5641875267
    479.8530578613    213.3333282471     -5.4606704712     -5.4606704712
    479.8740539551    240.0000000000     -5.4532799721     -5.4532799721
    459.7481079102    240.0000000000     -7.5469446182     -7.5469446182
    459.7061157227    213.3333282471     -7.5518503189     -7.5518503189
    479.8740539551    240.0000000000     -5.4532799721     -5.4532799721
    479.8950500488    266.6666564941     -5.4445476532     -5.4445476532
    459.7900695801    266.6666564941     -7.5481500626     -7.5481500626
    459.7481079102    240.0000000000     -7.5469446182     -7.5469446182
    479.8950500488    266.6666564941     -5.4445476532     -5.4445476532
    479.9160156250    293.3333435059     -5.4424376488     -5.4424376488
    459.8320617676    293.3333435059     -7.5512275696     -7.5512275696
    459.7900695801    266.6666564941     -7.5481500626     -7.5481500626
    479.9160156250    293.3333435059     -5.4424376488     -5.4424376488
    479.9370422363    320.0000000000     -5.4392623901     -5.4392623901
    459.8740539551    320.0000000000     -7.5518627167     -7.5518627167
    459.8320617676    293.3333435059     -7.5512275696     -7.5512275696
    479.9370422363    320.0000000000     -5.4392623901     -5.4392623901
    479.9580078125    346.6666564941     -5.4360423088     -5.4360423088
    459.9160156250    346.6666564941     -7.5490951538     -7.5490951538
    459.8740539551    320.0000000000     -7.5518627167     -7.5518627167
    479.9580078125    346.6666564941     -5.4360423088     -5.4360423088
    479.9790039062    373.3333435059     -5.4339323044     -5.4339323044
    459.9580078125    373.3333435059     -7.5448474884     -7.5448474884
    459.9160156250    346.6666564941     -7.5490951538     -7.5490951538
    479.9790039062    373.3333435059     -5.4339323044     -5.4339323044
    480.0000000000    400.0000000000     -5.4339323044     -5.4339323044
    460.0000000000    400.0000000000     -7.5448474884     -7.5448474884
    459.9580078125    373.3333435059     -7.5448474884     -7.5448474884
    459.3702392578      0.0000000000     -7.6145324707     -7.6145324707
    459.4122314453     26.6666698456     -7.6145324707     -7.6145324707
    439.1183471680     26.6666698456     -8.7598495483     -8.7598495483
    439.0553588867      0.0000000000     -8.7598495483     -8.7598495483
    459.4122314453     26.6666698456     -7.6145324707     -7.6145324707
    459.4542236328     53.3333282471     -7.6145625114     -7.6145625114
    439.1813049316     53.3333282471     -8.7550945282     -8.7550945282
    439.1183471680     26.6666698456     -8.7598495483     -8.7598495483
    459.4542236328     53.3333282471     -7.6145625114     -7.6145625114
    459.4961853027     80.0000000000     -7.6138200760     -7.6138200760
    439.2442932129     80.0000000000     -8.7578849792     -8.7578849792
    439.1813049316     53.3333282471     -8.7550945282     -8.7550945282
    459.4961853027     80.0000000000     -7.6138200760     -7.6138200760
    459.5381774902    106.6666717529     -7.6089973450     -7.6089973450
    439.3072814941    106.6666717529     -8.7768220901     -8.7768220901
    439.2442932129     80.0000000000     -8.7578849792     -8.7578849792
    459.5381774902    106.6666717529     -7.6089973450     -7.6089973450
    459.5801696777    133.3333282471     -7.5978851318     -7.5978851318
    439.3702392578    133.3333282471     -8.8146228790     -8.8146228790
    439.3072814941    106.6666717529     -8.7768220901     -8.7768220901
    459.5801696777    133.3333282471     -7.5978851318     -7.5978851318
    459.6221618652    160.0000000000     -7.5813894272     -7.5813894272
    439.4332275391    160.0000000000     -8.8627576828     -8.8627576828
    439.3702392578    133.3333282471     -8.8146228790     -8.8146228790
    459.6221618652    160.0000000000     -7.5813894272     -7.5813894272
    459.6641235352    186.6666717529     -7.5641875267     -7.5641875267
    439.4961853027    186.6666717529     -8.9028549194     -8.9028549194
    439.4332275391    160.0000000000     -8.8627576828     -8.8627576828
    459.6641235352    186.6666717529     -7.5641875267     -7.5641875267
    459.7061157227    213.3333282471     -7.5518503189     -7.5518503189
    439.5591735840    213.3333282471     -8.9171104431     -8.9171104431
    439.4961853027    186.6666717529     -8.9028549194     -8.9028549194
    459.7061157227    213.3333282471     -7.5518503189     -7.5518503189
    459.7481079102    240.0000000000     -7.5469446182     -7.5469446182
    439.6221618652    240.0000000000     -8.9015626907     -8.9015626907
    439.5591735840    213.3333282471     -8.9171104431     -8.9171104431
    459.7481079102    240.0000000000     -7.5469446182     -7.5469446182
    459.7900695801    266.6666564941     -7.5481500626     -7.5481500626
    439.6851196289    266.6666564941     -8.8707523346     -8.8707523346
    439.6221618652    240.0000000000     -8.9015626907     -8.9015626907
    459.7900695801    266.6666564941     -7.5481500626     -7.5481500626
    459.8320617676    293.3333435059     -7.5512275696     -7.5512275696
    439.7481079102    293.3333435059     -8.8466129303     -8.8466129303
    439.6851196289    266.6666564941     -8.8707523346     -8.8707523346
    459.8320617676    293.3333435059     -7.5512275696     -7.5512275696
    459.8740539551    320.0000000000     -7.5518627167     -7.5518627167
    439.8110656738    320.0000000000     -8.8411722183     -8.8411722183
    439.7481079102    293.3333435059     -8.8466129303     -8.8466129303
    459.8740539551    320.0000000000     -7.5518627167     -7.5518627167
    459.9160156250    346.6666564941     -7.5490951538     -7.5490951538
    439.8740539551    346.6666564941     -8.8497228622     -8.8497228622
    439.8110656738    320.0000000000     -8.8411722183     -8.8411722183
    459.9160156250    346.6666564941     -7.5490951538     -7.5490951538
    459.9580078125    373.3333435059     -7.5448474884     -7.5448474884
    439.9370422363    373.3333435059     -8.8584804535     -8.8584804535
    439.8740539551    346.6666564941     -8.8497228622     -8.8497228622
    459.9580078125    373.3333435059     -7.5448474884     -7.5448474884
    460.0000000000    400.0000000000     -7.5448474884     -7.5448474884
    440.0000000000    400.0000000000     -8.8584804535     -8.8584804535
    439.9370422363    373.3333435059     -8.8584804535     -8.8584804535
    439.0553588867      0.0000000000     -8.7598495483     -8.7598495483
    439.1183471680     26.6666698456     -8.7598495483     -8.7598495483
    418.8244628906     26.6666698456    -10.6057376862    -10.6057376862
    418.7405090332      0.0000000000    -10.6057376862    -10.6057376862
    439.1183471680     26.6666698456     -8.7598495483     -8.7598495483
    439.1813049316     53.3333282471     -8.7550945282     -8.7550945282
    418.9084167480     53.3333282471    -10.7104244232    -10.7104244232
    418.8244628906     26.6666698456    -10.6057376862    -10.6057376862
    439.1813049316     53.3333282471     -8.7550945282     -8.7550945282
    439.2442932129     80.0000000000     -8.7578849792     -8.7578849792
    418.9924011230     80.0000000000    -10.7543258667    -10.7543258667
    418.9084167480     53.3333282471    -10.7104244232    -10.7104244232
    439.2442932129     80.0000000000     -8.7578849792     -8.7578849792
    439.3072814941    106.6666717529     -8.7768220901     -8.7768220901
    419.0763549805    106.6666717529    -10.6009778976    -10.6009778976
    418.9924011230     80.0000000000    -10.7543258667    -10.7543258667
    439.3072814941    106.6666717529     -8.7768220901     -8.7768220901
    439.3702392578    133.3333282471     -8.8146228790     -8.8146228790
    419.1603393555    133.3333282471    -10.1772451401    -10.1772451401
    419.0763549805    106.6666717529    -10.6009778976    -10.6009778976
    439.3702392578    133.3333282471     -8.8146228790     -8.8146228790
    439.4332275391    160.0000000000     -8.8627576828     -8.8627576828
    419.2442932129    160.0000000000     -9.5542430878     -9.5542430878
    419.1603393555    133.3333282471    -10.1772451401    -10.1772451401
    439.4332275391    160.0000000000     -8.8627576828     -8.8627576828
    439.4961853027    186.6666717529     -8.9028549194     -8.9028549194
    419.3282775879    186.6666717529     -8.9519243240     -8.9519243240
    419.2442932129    160.0000000000     -9.5542430878     -9.5542430878
    439.4961853027    186.6666717529     -8.9028549194     -8.9028549194
    439.5591735840    213.3333282471     -8.9171104431     -8.9171104431
    419.4122314453    213.3333282471     -8.6222152710     -8.6222152710
    419.3282775879    186.6666717529     -8.9519243240     -8.9519243240
    439.5591735840    213.3333282471     -8.9171104431     -8.9171104431
    439.6221618652    240.0000000000     -8.9015626907     -8.9015626907
    419.4961853027    240.0000000000     -8.6733198166     -8.6733198166
    419.4122314453    213.3333282471     -8.6222152710     -8.6222152710
    439.6221618652    240.0000000000     -8.9015626907     -8.9015626907
    439.6851196289    266.6666564941     -8.8707523346     -8.8707523346
    419.5801696777    266.6666564941     -8.9794225693     -8.9794225693
    419.4961853027    240.0000000000     -8.6733198166     -8.6733198166
    439.6851196289    266.6666564941     -8.8707523346     -8.8707523346
    439.7481079102    293.3333435059     -8.8466129303     -8.8466129303
    419.6641235352    293.3333435059     -9.2813930511     -9.2813930511
    419.5801696777    266.6666564941     -8.9794225693     -8.9794225693
    439.7481079102    293.3333435059     -8.8466129303     -8.8466129303
    439.8110656738    320.0000000000     -8.8411722183     -8.8411722183
    419.7481079102    320.0000000000     -9.3940067291     -9.3940067291
    419.6641235352    293.3333435059     -9.2813930511     -9.2813930511
    439.8110656738    320.0000000000     -8.8411722183     -8.8411722183
    439.8740539551    346.6666564941     -8.8497228622     -8.8497228622
    419.8320617676    346.6666564941     -9.3252973557     -9.3252973557
    419.7481079102    320.0000000000     -9.3940067291     -9.3940067291
    439.8740539551    346.6666564941     -8.8497228622     -8.8497228622
    439.9370422363    373.3333435059     -8.8584804535     -8.8584804535
    419.9160156250    373.3333435059     -9.2162275314     -9.2162275314
    419.8320617676    346.6666564941     -9.3252973557     -9.3252973557
    439.9370422363    373.3333435059     -8.8584804535     -8.8584804535
    440.0000000000    400.0000000000     -8.8584804535     -8.8584804535
    420.0000000000    400.0000000000     -9.2162275314     -9.2162275314
    419.9160156250    373.3333435059     -9.2162275314     -9.2162275314
    418.7405090332      0.0000000000    -10.6057376862    -10.6057376862
    418.8244628906     26.6666698456    -10.6057376862    -10.6057376862
    398.5305786133     26.6666698456    -10.1070747375    -10.1070747375
    398.4256286621      0.0000000000    -10.1070747375    -10.1070747375
    418.8244628906     26.6666698456    -10.6057376862    -10.6057376862
    418.9084167480     53.3333282471    -10.7104244232    -10.7104244232
    398.6355285645     53.3333282471    -10.8033103943    -10.8033103943
    398.5305786133     26.6666698456    -10.1070747375    -10.1070747375
    418.9084167480     53.3333282471    -10.7104244232    -10.7104244232
    418.9924011230     80.0000000000    -10.7543258667    -10.7543258667
    398.7405090332     80.0000000000    -11.6570911407    -11.6570911407
    398.6355285645     53.3333282471    -10.8033103943    -10.8033103943
    418.9924011230     80.0000000000    -10.7543258667    -10.7543258667
    419.0763549805    106.6666717529    -10.6009778976    -10.6009778976
    398.8454589844    106.6666717529    -12.2315349579    -12.2315349579
    398.7405090332     80.0000000000    -11.6570911407    -11.6570911407
    419.0763549805    106.6666717529    -10.6009778976    -10.6009778976
    419.1603393555    133.3333282471    -10.1772451401    -10.1772451401
    398.9504089355    133.3333282471    -12.0622673035    -12.0622673035
    398.8454589844    106.6666717529    -12.2315349579    -12.2315349579
    419.1603393555    133.3333282471    -10.1772451401    -10.1772451401
    419.2442932129    160.0000000000     -9.5542430878     -9.5542430878
    399.0553588867    160.0000000000    -10.9504814148    -10.9504814148
    398.9504089355    133.3333282471    -12.0622673035    -12.0622673035
    419.2442932129    160.0000000000     -9.5542430878     -9.5542430878
    419.3282775879    186.6666717529     -8.9519243240     -8.9519243240
    399.1603393555    186.6666717529     -9.2187423706     -9.2187423706
    399.0553588867    160.0000000000    -10.9504814148    -10.9504814148
    419.3282775879    186.6666717529     -8.9519243240     -8.9519243240
    419.4122314453    213.3333282471     -8.6222152710     -8.6222152710
    399.2652893066    213.3333282471     -7.6382846832     -7.6382846832
    399.1603393555    186.6666717529     -9.2187423706     -9.2187423706
    419.4122314453    213.3333282471     -8.6222152710     -8.6222152710
    419.4961853027    240.0000000000     -8.6733198166     -8.6733198166
    399.3702392578    240.0000000000     -6.9576921463     -6.9576921463
    399.2652893066    213.3333282471     -7.6382846832     -7.6382846832
    419.4961853027    240.0000000000     -8.6733198166     -8.6733198166
    419.5801696777    266.6666564941     -8.9794225693     -8.9794225693
    399.4752197266    266.6666564941     -7.3451948166     -7.3451948166
    399.3702392578    240.0000000000     -6.9576921463     -6.9576921463
    419.5801696777    266.6666564941     -8.9794225693     -8.9794225693
    419.6641235352    293.3333435059     -9.2813930511     -9.2813930511
    399.5801696777    293.3333435059     -8.2634229660     -8.2634229660
    399.4752197266    266.6666564941     -7.3451948166     -7.3451948166
    419.6641235352    293.3333435059     -9.2813930511     -9.2813930511
    419.7481079102    320.0000000000     -9.3940067291     -9.3940067291
    399.6851196289    320.0000000000     -8.9448471069     -8.9448471069
    399.5801696777    293.3333435059     -8.2634229660     -8.2634229660
    419.7481079102    320.0000000000     -9.3940067291     -9.3940067291
    419.8320617676    346.6666564941     -9.3252973557     -9.3252973557
    399.7900695801    346.6666564941     -9.0165948868     -9.0165948868
    399.6851196289    320.0000000000     -8.9448471069     -8.9448471069
    419.8320617676    346.6666564941     -9.3252973557     -9.3252973557
    419.9160156250    373.3333435059     -9.2162275314     -9.2162275314
    399.8950500488    373.3333435059     -8.7285346985     -8.7285346985
    399.7900695801    346.6666564941     -9.0165948868     -9.0165948868
    419.9160156250    373.3333435059     -9.2162275314     -9.2162275314
    420.0000000000    400.0000000000     -9.2162275314     -9.2162275314
    400.0000000000    400.0000000000     -8.7285346985     -8.7285346985
    399.8950500488    373.3333435059     -8.7285346985     -8.7285346985
    398.4256286621      0.0000000000    -10.1070747375    -10.1070747375
    398.5305786133     26.6666698456    -10.1070747375    -10.1070747375
    378.2366943359     26.6666698456     -3.1468725204     -3.1468725204
    378.1107482910      0.0000000000     -3.1468725204     -3.1468725204
    398.5305786133     26.6666698456    -10.1070747375    -10.1070747375
    398.6355285645     53.3333282471    -10.8033103943    -10.8033103943
    378.3626403809     53.3333282471     -3.8642001152     -3.8642001152
    378.2366943359     26.6666698456     -3.1468725204     -3.1468725204
    398.6355285645     53.3333282471    -10.8033103943    -10.8033103943
    398.7405090332     80.0000000000    -11.6570911407    -11.6570911407
    378.4885864258     80.0000000000     -5.2120499611     -5.2120499611
    378.3626403809     53.3333282471     -3.8642001152     -3.8642001152
    398.7405090332     80.0000000000    -11.6570911407    -11.6570911407
    398.8454589844    106.6666717529    -12.2315349579    -12.2315349579
    378.6145629883    106.6666717529     -7.1272802353     -7.1272802353
    378.4885864258     80.0000000000     -5.2120499611     -5.2120499611
    398.8454589844    106.6666717529    -12.2315349579    -12.2315349579
    398.9504089355    133.3333282471    -12.0622673035    -12.0622673035
    378.7405090332    133.3333282471     -9.1179199219     -9.1179199219
    378.6145629883    106.6666717529     -7.1272802353     -7.1272802353
    398.9504089355    133.3333282471    -12.0622673035    -12.0622673035
    399.0553588867    160.0000000000    -10.9504814148    -10.9504814148
    378.8664550781    160.0000000000    -10.3390121460    -10.3390121460
    378.7405090332    133.3333282471     -9.1179199219     -9.1179199219
    399.0553588867    160.0000000000    -10.9504814148    -10.9504814148
    399.1603393555    186.6666717529     -9.2187423706     -9.2187423706
    378.9924011230    186.6666717529    -10.1026782990    -10.1026782990
    378.8664550781    160.0000000000    -10.3390121460    -10.3390121460
    399.1603393555    186.6666717529     -9.2187423706     -9.2187423706
    399.2652893066    213.3333282471     -7.6382846832     -7.6382846832
    379.1183471680    213.3333282471     -8.4994401932     -8.4994401932
    378.9924011230    186.6666717529    -10.1026782990    -10.1026782990
    399.2652893066    213.3333282471     -7.6382846832     -7.6382846832
    399.3702392578    240.0000000000     -6.9576921463     -6.9576921463
    379.2442932129    240.0000000000     -6.5242700577     -6.5242700577
    379.1183471680    213.3333282471     -8.4994401932     -8.4994401932
    399.3702392578    240.0000000000     -6.9576921463     -6.9576921463
    399.4752197266    266.6666564941     -7.3451948166     -7.3451948166
    379.3702392578    266.6666564941     -5.4140849113     -5.4140849113
    379.2442932129    240.0000000000     -6.5242700577     -6.5242700577
    399.4752197266    266.6666564941     -7.3451948166     -7.3451948166
    399.5801696777    293.3333435059     -8.2634229660     -8.2634229660
    379.4961853027    293.3333435059     -5.6556472778     -5.6556472778
    379.3702392578    266.6666564941     -5.4140849113     -5.4140849113
    399.5801696777    293.3333435059     -8.2634229660     -8.2634229660
    399.6851196289    320.0000000000     -8.9448471069     -8.9448471069
    379.6221618652    320.0000000000     -6.6531348228     -6.6531348228
    379.4961853027    293.3333435059     -5.6556472778     -5.6556472778
    399.6851196289    320.0000000000     -8.9448471069     -8.9448471069
    399.7900695801    346.6666564941     -9.0165948868     -9.0165948868
    379.7481079102    346.6666564941     -7.4069271088     -7.4069271088
    379.6221618652    320.0000000000     -6.6531348228     -6.6531348228
    399.7900695801    346.6666564941     -9.0165948868     -9.0165948868
    399.8950500488    373.3333435059     -8.7285346985     -8.7285346985
    379.8740539551    373.3333435059     -7.5109100342     -7.5109100342
    379.7481079102    346.6666564941     -7.4069271088     -7.4069271088
    399.8950500488    373.3333435059     -8.7285346985     -8.7285346985
    400.0000000000    400.0000000000     -8.7285346985     -8.7285346985
    380.0000000000    400.0000000000     -7.5109100342     -7.5109100342
    379.8740539551    373.3333435059     -7.5109100342     -7.5109100342
    378.1107482910      0.0000000000     -3.1468725204     -3.1468725204
    378.2366943359     26.6666698456     -3.1468725204     -3.1468725204
    357.9428100586     26.6666698456     -0.6572824717     -0.6572824717
    357.7958679199      0.0000000000     -0.6572824717     -0.6572824717
    378.2366943359     26.6666698456     -3.1468725204     -3.1468725204
    378.3626403809     53.3333282471     -3.8642001152     -3.8642001152
    358.0897521973     53.3333282471      0.2289599776      0.2289599776
    357.9428100586     26.6666698456     -0.6572824717     -0.6572824717
    378.3626403809     53.3333282471     -3.8642001152     -3.8642001152
    378.4885864258     80.0000000000     -5.2120499611     -5.2120499611
    358.2366943359     80.0000000000      1.0293250084      1.0293250084
    358.0897521973     53.3333282471      0.2289599776      0.2289599776
    378.4885864258     80.0000000000     -5.2120499611     -5.2120499611
    378.6145629883    106.6666717529     -7.1272802353     -7.1272802353
    358.3836364746    106.6666717529      0.9119349718      0.9119349718
    358.2366943359     80.0000000000      1.0293250084      1.0293250084
    378.6145629883    106.6666717529     -7.1272802353     -7.1272802353
    378.7405090332    133.3333282471     -9.1179199219     -9.1179199219
    358.5305786133    133.3333282471     -0.7328174114     -0.7328174114
    358.3836364746    106.6666717529      0.9119349718      0.9119349718
    378.7405090332    133.3333282471     -9.1179199219     -9.1179199219
    378.8664550781    160.0000000000    -10.3390121460    -10.3390121460
    358.6775207520    160.0000000000     -3.6618852615     -3.6618852615
    358.5305786133    133.3333282471     -0.7328174114     -0.7328174114
    378.8664550781    160.0000000000    -10.3390121460    -10.3390121460
    378.9924011230    186.6666717529    -10.1026782990    -10.1026782990
    358.8244628906    186.6666717529     -6.5932254791     -6.5932254791
    358.6775207520    160.0000000000     -3.6618852615     -3.6618852615
    378.9924011230    186.6666717529    -10.1026782990    -10.1026782990
    379.1183471680    213.3333282471     -8.4994401932     -8.4994401932
    358.9714050293    213.3333282471     -7.9521794319     -7.9521794319
    358.8244628906    186.6666717529     -6.5932254791     -6.5932254791
    379.1183471680    213.3333282471     -8.4994401932     -8.4994401932
    379.2442932129    240.0000000000     -6.5242700577     -6.5242700577
    359.1183471680    240.0000000000     -7.1204700470     -7.1204700470
    358.9714050293    213.3333282471     -7.9521794319     -7.9521794319
    379.2442932129    240.0000000000     -6.5242700577     -6.5242700577
    379.3702392578    266.6666564941     -5.4140849113     -5.4140849113
    359.2652893066    266.6666564941     -5.0532150269     -5.0532150269
    359.1183471680    240.0000000000     -7.1204700470     -7.1204700470
    379.3702392578    266.6666564941     -5.4140849113     -5.4140849113
    379.4961853027    293.3333435059     -5.6556472778     -5.6556472778
    359.4122314453    293.3333435059     -3.4745473862     -3.4745473862
    359.2652893066    266.6666564941     -5.0532150269     -5.0532150269
    379.4961853027    293.3333435059     -5.6556472778     -5.6556472778
    379.6221618652    320.0000000000     -6.6531348228     -6.6531348228
    359.5591735840    320.0000000000     -3.3675174713     -3.3675174713
    359.4122314453    293.3333435059     -3.4745473862     -3.4745473862