 VARIABLES= "X","Y","Z","yita"  
ZONE N=                                        3000 E=                              750 F=FEPOINT, ET=QUADRILATERAL
    500.0000000000      0.0000000000     -6.8457803726     -6.8457803726
    500.0000000000     26.6666698456     -6.8457803726     -6.8457803726
    479.7061157227     26.6666698456     -6.8457803726     -6.8457803726
    479.6851196289      0.0000000000     -6.8457803726     -6.8457803726
    500.0000000000     26.6666698456     -6.8457803726     -6.8457803726
    500.0000000000     53.3333282471     -6.8491725922     -6.8491725922
    479.7271118164     53.3333282471     -6.8491725922     -6.8491725922
    479.7061157227     26.6666698456     -6.8457803726     -6.8457803726
    500.0000000000     53.3333282471     -6.8491725922     -6.8491725922
    500.0000000000     80.0000000000     -6.8434176445     -6.8434176445
    479.7481079102     80.0000000000     -6.8434176445     -6.8434176445
    479.7271118164     53.3333282471     -6.8491725922     -6.8491725922
    500.0000000000     80.0000000000     -6.8434176445     -6.8434176445
    500.0000000000    106.6666717529     -6.8379926682     -6.8379926682
    479.7691040039    106.6666717529     -6.8379926682     -6.8379926682
    479.7481079102     80.0000000000     -6.8434176445     -6.8434176445
    500.0000000000    106.6666717529     -6.8379926682     -6.8379926682
    500.0000000000    133.3333282471     -6.8417253494     -6.8417253494
    479.7900695801    133.3333282471     -6.8417253494     -6.8417253494
    479.7691040039    106.6666717529     -6.8379926682     -6.8379926682
    500.0000000000    133.3333282471     -6.8417253494     -6.8417253494
    500.0000000000    160.0000000000     -6.8383703232     -6.8383703232
    479.8110656738    160.0000000000     -6.8383703232     -6.8383703232
    479.7900695801    133.3333282471     -6.8417253494     -6.8417253494
    500.0000000000    160.0000000000     -6.8383703232     -6.8383703232
    500.0000000000    186.6666717529     -6.8336977959     -6.8336977959
    479.8320617676    186.6666717529     -6.8336977959     -6.8336977959
    479.8110656738    160.0000000000     -6.8383703232     -6.8383703232
    500.0000000000    186.6666717529     -6.8336977959     -6.8336977959
    500.0000000000    213.3333282471     -6.8357229233     -6.8357229233
    479.8530578613    213.3333282471     -6.8357229233     -6.8357229233
    479.8320617676    186.6666717529     -6.8336977959     -6.8336977959
    500.0000000000    213.3333282471     -6.8357229233     -6.8357229233
    500.0000000000    240.0000000000     -6.8395428658     -6.8395428658
    479.8740539551    240.0000000000     -6.8395428658     -6.8395428658
    479.8530578613    213.3333282471     -6.8357229233     -6.8357229233
    500.0000000000    240.0000000000     -6.8395428658     -6.8395428658
    500.0000000000    266.6666564941     -6.8433399200     -6.8433399200
    479.8950500488    266.6666564941     -6.8433399200     -6.8433399200
    479.8740539551    240.0000000000     -6.8395428658     -6.8395428658
    500.0000000000    266.6666564941     -6.8433399200     -6.8433399200
    500.0000000000    293.3333435059     -6.8457999229     -6.8457999229
    479.9160156250    293.3333435059     -6.8457999229     -6.8457999229
    479.8950500488    266.6666564941     -6.8433399200     -6.8433399200
    500.0000000000    293.3333435059     -6.8457999229     -6.8457999229
    500.0000000000    320.0000000000     -6.8499574661     -6.8499574661
    479.9370422363    320.0000000000     -6.8499574661     -6.8499574661
    479.9160156250    293.3333435059     -6.8457999229     -6.8457999229
    500.0000000000    320.0000000000     -6.8499574661     -6.8499574661
    500.0000000000    346.6666564941     -6.8543200493     -6.8543200493
    479.9580078125    346.6666564941     -6.8543200493     -6.8543200493
    479.9370422363    320.0000000000     -6.8499574661     -6.8499574661
    500.0000000000    346.6666564941     -6.8543200493     -6.8543200493
    500.0000000000    373.3333435059     -6.8568177223     -6.8568177223
    479.9790039062    373.3333435059     -6.8568177223     -6.8568177223
    479.9580078125    346.6666564941     -6.8543200493     -6.8543200493
    500.0000000000    373.3333435059     -6.8568177223     -6.8568177223
    500.0000000000    400.0000000000     -6.8568177223     -6.8568177223
    480.0000000000    400.0000000000     -6.8568177223     -6.8568177223
    479.9790039062    373.3333435059     -6.8568177223     -6.8568177223
    479.6851196289      0.0000000000     -6.8457803726     -6.8457803726
    479.7061157227     26.6666698456     -6.8457803726     -6.8457803726
    459.4122314453     26.6666698456     -4.4532351494     -4.4532351494
    459.3702392578      0.0000000000     -4.4532351494     -4.4532351494
    479.7061157227     26.6666698456     -6.8457803726     -6.8457803726
    479.7271118164     53.3333282471     -6.8491725922     -6.8491725922
    459.4542236328     53.3333282471     -4.4515428543     -4.4515428543
    459.4122314453     26.6666698456     -4.4532351494     -4.4532351494
    479.7271118164     53.3333282471     -6.8491725922     -6.8491725922
    479.7481079102     80.0000000000     -6.8434176445     -6.8434176445
    459.4961853027     80.0000000000     -4.4456248283     -4.4456248283
    459.4542236328     53.3333282471     -4.4515428543     -4.4515428543
    479.7481079102     80.0000000000     -6.8434176445     -6.8434176445
    479.7691040039    106.6666717529     -6.8379926682     -6.8379926682
    459.5381774902    106.6666717529     -4.4382901192     -4.4382901192
    459.4961853027     80.0000000000     -4.4456248283     -4.4456248283
    479.7691040039    106.6666717529     -6.8379926682     -6.8379926682
    479.7900695801    133.3333282471     -6.8417253494     -6.8417253494
    459.5801696777    133.3333282471     -4.4335527420     -4.4335527420
    459.5381774902    106.6666717529     -4.4382901192     -4.4382901192
    479.7900695801    133.3333282471     -6.8417253494     -6.8417253494
    479.8110656738    160.0000000000     -6.8383703232     -6.8383703232
    459.6221618652    160.0000000000     -4.4346199036     -4.4346199036
    459.5801696777    133.3333282471     -4.4335527420     -4.4335527420
    479.8110656738    160.0000000000     -6.8383703232     -6.8383703232
    479.8320617676    186.6666717529     -6.8336977959     -6.8336977959
    459.6641235352    186.6666717529     -4.4431600571     -4.4431600571
    459.6221618652    160.0000000000     -4.4346199036     -4.4346199036
    479.8320617676    186.6666717529     -6.8336977959     -6.8336977959
    479.8530578613    213.3333282471     -6.8357229233     -6.8357229233
    459.7061157227    213.3333282471     -4.4575076103     -4.4575076103
    459.6641235352    186.6666717529     -4.4431600571     -4.4431600571
    479.8530578613    213.3333282471     -6.8357229233     -6.8357229233
    479.8740539551    240.0000000000     -6.8395428658     -6.8395428658
    459.7481079102    240.0000000000     -4.4726624489     -4.4726624489
    459.7061157227    213.3333282471     -4.4575076103     -4.4575076103
    479.8740539551    240.0000000000     -6.8395428658     -6.8395428658
    479.8950500488    266.6666564941     -6.8433399200     -6.8433399200
    459.7900695801    266.6666564941     -4.4840922356     -4.4840922356
    459.7481079102    240.0000000000     -4.4726624489     -4.4726624489
    479.8950500488    266.6666564941     -6.8433399200     -6.8433399200
    479.9160156250    293.3333435059     -6.8457999229     -6.8457999229
    459.8320617676    293.3333435059     -4.4907474518     -4.4907474518
    459.7900695801    266.6666564941     -4.4840922356     -4.4840922356
    479.9160156250    293.3333435059     -6.8457999229     -6.8457999229
    479.9370422363    320.0000000000     -6.8499574661     -6.8499574661
    459.8740539551    320.0000000000     -4.4948997498     -4.4948997498
    459.8320617676    293.3333435059     -4.4907474518     -4.4907474518
    479.9370422363    320.0000000000     -6.8499574661     -6.8499574661
    479.9580078125    346.6666564941     -6.8543200493     -6.8543200493
    459.9160156250    346.6666564941     -4.4993996620     -4.4993996620
    459.8740539551    320.0000000000     -4.4948997498     -4.4948997498
    479.9580078125    346.6666564941     -6.8543200493     -6.8543200493
    479.9790039062    373.3333435059     -6.8568177223     -6.8568177223
    459.9580078125    373.3333435059     -4.5049748421     -4.5049748421
    459.9160156250    346.6666564941     -4.4993996620     -4.4993996620
    479.9790039062    373.3333435059     -6.8568177223     -6.8568177223
    480.0000000000    400.0000000000     -6.8568177223     -6.8568177223
    460.0000000000    400.0000000000     -4.5049748421     -4.5049748421
    459.9580078125    373.3333435059     -4.5049748421     -4.5049748421
    459.3702392578      0.0000000000     -4.4532351494     -4.4532351494
    459.4122314453     26.6666698456     -4.4532351494     -4.4532351494
    439.1183471680     26.6666698456     -1.5176324844     -1.5176324844
    439.0553588867      0.0000000000     -1.5176324844     -1.5176324844
    459.4122314453     26.6666698456     -4.4532351494     -4.4532351494
    459.4542236328     53.3333282471     -4.4515428543     -4.4515428543
    439.1813049316     53.3333282471     -1.5479400158     -1.5479400158
    439.1183471680     26.6666698456     -1.5176324844     -1.5176324844
    459.4542236328     53.3333282471     -4.4515428543     -4.4515428543
    459.4961853027     80.0000000000     -4.4456248283     -4.4456248283
    439.2442932129     80.0000000000     -1.5879299641     -1.5879299641
    439.1813049316     53.3333282471     -1.5479400158     -1.5479400158
    459.4961853027     80.0000000000     -4.4456248283     -4.4456248283
    459.5381774902    106.6666717529     -4.4382901192     -4.4382901192
    439.3072814941    106.6666717529     -1.6289124489     -1.6289124489
    439.2442932129     80.0000000000     -1.5879299641     -1.5879299641
    459.5381774902    106.6666717529     -4.4382901192     -4.4382901192
    459.5801696777    133.3333282471     -4.4335527420     -4.4335527420
    439.3702392578    133.3333282471     -1.6580475569     -1.6580475569
    439.3072814941    106.6666717529     -1.6289124489     -1.6289124489
    459.5801696777    133.3333282471     -4.4335527420     -4.4335527420
    459.6221618652    160.0000000000     -4.4346199036     -4.4346199036
    439.4332275391    160.0000000000     -1.6641999483     -1.6641999483
    439.3702392578    133.3333282471     -1.6580475569     -1.6580475569
    459.6221618652    160.0000000000     -4.4346199036     -4.4346199036
    459.6641235352    186.6666717529     -4.4431600571     -4.4431600571
    439.4961853027    186.6666717529     -1.6468124390     -1.6468124390
    439.4332275391    160.0000000000     -1.6641999483     -1.6641999483
    459.6641235352    186.6666717529     -4.4431600571     -4.4431600571
    459.7061157227    213.3333282471     -4.4575076103     -4.4575076103
    439.5591735840    213.3333282471     -1.6193499565     -1.6193499565
    439.4961853027    186.6666717529     -1.6468124390     -1.6468124390
    459.7061157227    213.3333282471     -4.4575076103     -4.4575076103
    459.7481079102    240.0000000000     -4.4726624489     -4.4726624489
    439.6221618652    240.0000000000     -1.6019450426     -1.6019450426
    439.5591735840    213.3333282471     -1.6193499565     -1.6193499565
    459.7481079102    240.0000000000     -4.4726624489     -4.4726624489
    459.7900695801    266.6666564941     -4.4840922356     -4.4840922356
    439.6851196289    266.6666564941     -1.6069124937     -1.6069124937
    439.6221618652    240.0000000000     -1.6019450426     -1.6019450426
    459.7900695801    266.6666564941     -4.4840922356     -4.4840922356
    459.8320617676    293.3333435059     -4.4907474518     -4.4907474518
    439.7481079102    293.3333435059     -1.6298373938     -1.6298373938
    439.6851196289    266.6666564941     -1.6069124937     -1.6069124937
    459.8320617676    293.3333435059     -4.4907474518     -4.4907474518
    459.8740539551    320.0000000000     -4.4948997498     -4.4948997498
    439.8110656738    320.0000000000     -1.6550323963     -1.6550323963
    439.7481079102    293.3333435059     -1.6298373938     -1.6298373938
    459.8740539551    320.0000000000     -4.4948997498     -4.4948997498
    459.9160156250    346.6666564941     -4.4993996620     -4.4993996620
    439.8740539551    346.6666564941     -1.6701625586     -1.6701625586
    439.8110656738    320.0000000000     -1.6550323963     -1.6550323963
    459.9160156250    346.6666564941     -4.4993996620     -4.4993996620
    459.9580078125    373.3333435059     -4.5049748421     -4.5049748421
    439.9370422363    373.3333435059     -1.6765524149     -1.6765524149
    439.8740539551    346.6666564941     -1.6701625586     -1.6701625586
    459.9580078125    373.3333435059     -4.5049748421     -4.5049748421
    460.0000000000    400.0000000000     -4.5049748421     -4.5049748421
    440.0000000000    400.0000000000     -1.6765524149     -1.6765524149
    439.9370422363    373.3333435059     -1.6765524149     -1.6765524149
    439.0553588867      0.0000000000     -1.5176324844     -1.5176324844
    439.1183471680     26.6666698456     -1.5176324844     -1.5176324844
    418.8244628906     26.6666698456      0.6982499957      0.6982499957
    418.7405090332      0.0000000000      0.6982499957      0.6982499957
    439.1183471680     26.6666698456     -1.5176324844     -1.5176324844
    439.1813049316     53.3333282471     -1.5479400158     -1.5479400158
    418.9084167480     53.3333282471      0.9791175127      0.9791175127
    418.8244628906     26.6666698456      0.6982499957      0.6982499957
    439.1813049316     53.3333282471     -1.5479400158     -1.5479400158
    439.2442932129     80.0000000000     -1.5879299641     -1.5879299641
    418.9924011230     80.0000000000      1.4135224819      1.4135224819
    418.9084167480     53.3333282471      0.9791175127      0.9791175127
    439.2442932129     80.0000000000     -1.5879299641     -1.5879299641
    439.3072814941    106.6666717529     -1.6289124489     -1.6289124489
    419.0763549805    106.6666717529      1.9000000954      1.9000000954
    418.9924011230     80.0000000000      1.4135224819      1.4135224819
    439.3072814941    106.6666717529     -1.6289124489     -1.6289124489
    439.3702392578    133.3333282471     -1.6580475569     -1.6580475569
    419.1603393555    133.3333282471      2.2706849575      2.2706849575
    419.0763549805    106.6666717529      1.9000000954      1.9000000954
    439.3702392578    133.3333282471     -1.6580475569     -1.6580475569
    439.4332275391    160.0000000000     -1.6641999483     -1.6641999483
    419.2442932129    160.0000000000      2.3593173027      2.3593173027
    419.1603393555    133.3333282471      2.2706849575      2.2706849575
    439.4332275391    160.0000000000     -1.6641999483     -1.6641999483
    439.4961853027    186.6666717529     -1.6468124390     -1.6468124390
    419.3282775879    186.6666717529      2.1148400307      2.1148400307
    419.2442932129    160.0000000000      2.3593173027      2.3593173027
    439.4961853027    186.6666717529     -1.6468124390     -1.6468124390
    439.5591735840    213.3333282471     -1.6193499565     -1.6193499565
    419.4122314453    213.3333282471      1.6677124500      1.6677124500
    419.3282775879    186.6666717529      2.1148400307      2.1148400307
    439.5591735840    213.3333282471     -1.6193499565     -1.6193499565
    439.6221618652    240.0000000000     -1.6019450426     -1.6019450426
    419.4961853027    240.0000000000      1.2665650845      1.2665650845
    419.4122314453    213.3333282471      1.6677124500      1.6677124500
    439.6221618652    240.0000000000     -1.6019450426     -1.6019450426
    439.6851196289    266.6666564941     -1.6069124937     -1.6069124937
    419.5801696777    266.6666564941      1.1034650803      1.1034650803
    419.4961853027    240.0000000000      1.2665650845      1.2665650845
    439.6851196289    266.6666564941     -1.6069124937     -1.6069124937
    439.7481079102    293.3333435059     -1.6298373938     -1.6298373938
    419.6641235352    293.3333435059      1.1784000397      1.1784000397
    419.5801696777    266.6666564941      1.1034650803      1.1034650803
    439.7481079102    293.3333435059     -1.6298373938     -1.6298373938
    439.8110656738    320.0000000000     -1.6550323963     -1.6550323963
    419.7481079102    320.0000000000      1.3301224709      1.3301224709
    419.6641235352    293.3333435059      1.1784000397      1.1784000397
    439.8110656738    320.0000000000     -1.6550323963     -1.6550323963
    439.8740539551    346.6666564941     -1.6701625586     -1.6701625586
    419.8320617676    346.6666564941      1.3998949528      1.3998949528
    419.7481079102    320.0000000000      1.3301224709      1.3301224709
    439.8740539551    346.6666564941     -1.6701625586     -1.6701625586
    439.9370422363    373.3333435059     -1.6765524149     -1.6765524149
    419.9160156250    373.3333435059      1.3717224598      1.3717224598
    419.8320617676    346.6666564941      1.3998949528      1.3998949528
    439.9370422363    373.3333435059     -1.6765524149     -1.6765524149
    440.0000000000    400.0000000000     -1.6765524149     -1.6765524149
    420.0000000000    400.0000000000      1.3717224598      1.3717224598
    419.9160156250    373.3333435059      1.3717224598      1.3717224598
    418.7405090332      0.0000000000      0.6982499957      0.6982499957
    418.8244628906     26.6666698456      0.6982499957      0.6982499957
    398.5305786133     26.6666698456      0.6370400190      0.6370400190
    398.4256286621      0.0000000000      0.6370400190      0.6370400190
    418.8244628906     26.6666698456      0.6982499957      0.6982499957
    418.9084167480     53.3333282471      0.9791175127      0.9791175127
    398.6355285645     53.3333282471      1.1576850414      1.1576850414
    398.5305786133     26.6666698456      0.6370400190      0.6370400190
    418.9084167480     53.3333282471      0.9791175127      0.9791175127
    418.9924011230     80.0000000000      1.4135224819      1.4135224819
    398.7405090332     80.0000000000      2.1526300907      2.1526300907
    398.6355285645     53.3333282471      1.1576850414      1.1576850414
    418.9924011230     80.0000000000      1.4135224819      1.4135224819
    419.0763549805    106.6666717529      1.9000000954      1.9000000954
    398.8454589844    106.6666717529      3.5937399864      3.5937399864
    398.7405090332     80.0000000000      2.1526300907      2.1526300907
    419.0763549805    106.6666717529      1.9000000954      1.9000000954
    419.1603393555    133.3333282471      2.2706849575      2.2706849575
    398.9504089355    133.3333282471      5.1749424934      5.1749424934
    398.8454589844    106.6666717529      3.5937399864      3.5937399864
    419.1603393555    133.3333282471      2.2706849575      2.2706849575
    419.2442932129    160.0000000000      2.3593173027      2.3593173027
    399.0553588867    160.0000000000      6.3420495987      6.3420495987
    398.9504089355    133.3333282471      5.1749424934      5.1749424934
    419.2442932129    160.0000000000      2.3593173027      2.3593173027
    419.3282775879    186.6666717529      2.1148400307      2.1148400307
    399.1603393555    186.6666717529      6.5880746841      6.5880746841
    399.0553588867    160.0000000000      6.3420495987      6.3420495987
    419.3282775879    186.6666717529      2.1148400307      2.1148400307
    419.4122314453    213.3333282471      1.6677124500      1.6677124500
    399.2652893066    213.3333282471      5.8455400467      5.8455400467
    399.1603393555    186.6666717529      6.5880746841      6.5880746841
    419.4122314453    213.3333282471      1.6677124500      1.6677124500
    419.4961853027    240.0000000000      1.2665650845      1.2665650845
    399.3702392578    240.0000000000      4.6308627129      4.6308627129
    399.2652893066    213.3333282471      5.8455400467      5.8455400467
    419.4961853027    240.0000000000      1.2665650845      1.2665650845
    419.5801696777    266.6666564941      1.1034650803      1.1034650803
    399.4752197266    266.6666564941      3.7107999325      3.7107999325
    399.3702392578    240.0000000000      4.6308627129      4.6308627129
    419.5801696777    266.6666564941      1.1034650803      1.1034650803
    419.6641235352    293.3333435059      1.1784000397      1.1784000397
    399.5801696777    293.3333435059      3.5179848671      3.5179848671
    399.4752197266    266.6666564941      3.7107999325      3.7107999325
    419.6641235352    293.3333435059      1.1784000397      1.1784000397
    419.7481079102    320.0000000000      1.3301224709      1.3301224709
    399.6851196289    320.0000000000      3.8695423603      3.8695423603
    399.5801696777    293.3333435059      3.5179848671      3.5179848671
    419.7481079102    320.0000000000      1.3301224709      1.3301224709
    419.8320617676    346.6666564941      1.3998949528      1.3998949528
    399.7900695801    346.6666564941      4.2456474304      4.2456474304
    399.6851196289    320.0000000000      3.8695423603      3.8695423603
    419.8320617676    346.6666564941      1.3998949528      1.3998949528
    419.9160156250    373.3333435059      1.3717224598      1.3717224598
    399.8950500488    373.3333435059      4.3507227898      4.3507227898
    399.7900695801    346.6666564941      4.2456474304      4.2456474304
    419.9160156250    373.3333435059      1.3717224598      1.3717224598
    420.0000000000    400.0000000000      1.3717224598      1.3717224598
    400.0000000000    400.0000000000      4.3507227898      4.3507227898
    399.8950500488    373.3333435059      4.3507227898      4.3507227898
    398.4256286621      0.0000000000      0.6370400190      0.6370400190
    398.5305786133     26.6666698456      0.6370400190      0.6370400190
    378.2366943359     26.6666698456      3.9145898819      3.9145898819
    378.1107482910      0.0000000000      3.9145898819      3.9145898819
    398.5305786133     26.6666698456      0.6370400190      0.6370400190
    398.6355285645     53.3333282471      1.1576850414      1.1576850414
    378.3626403809     53.3333282471      3.3605322838      3.3605322838
    378.2366943359     26.6666698456      3.9145898819      3.9145898819
    398.6355285645     53.3333282471      1.1576850414      1.1576850414
    398.7405090332     80.0000000000      2.1526300907      2.1526300907
    378.4885864258     80.0000000000      2.8759651184      2.8759651184
    378.3626403809     53.3333282471      3.3605322838      3.3605322838
    398.7405090332     80.0000000000      2.1526300907      2.1526300907
    398.8454589844    106.6666717529      3.5937399864      3.5937399864
    378.6145629883    106.6666717529      2.9726424217      2.9726424217
    378.4885864258     80.0000000000      2.8759651184      2.8759651184
    398.8454589844    106.6666717529      3.5937399864      3.5937399864
    398.9504089355    133.3333282471      5.1749424934      5.1749424934
    378.7405090332    133.3333282471      4.0287227631      4.0287227631
    378.6145629883    106.6666717529      2.9726424217      2.9726424217
    398.9504089355    133.3333282471      5.1749424934      5.1749424934
    399.0553588867    160.0000000000      6.3420495987      6.3420495987
    378.8664550781    160.0000000000      5.9137873650      5.9137873650
    378.7405090332    133.3333282471      4.0287227631      4.0287227631
    399.0553588867    160.0000000000      6.3420495987      6.3420495987
    399.1603393555    186.6666717529      6.5880746841      6.5880746841
    378.9924011230    186.6666717529      7.8650550842      7.8650550842
    378.8664550781    160.0000000000      5.9137873650      5.9137873650
    399.1603393555    186.6666717529      6.5880746841      6.5880746841
    399.2652893066    213.3333282471      5.8455400467      5.8455400467
    379.1183471680    213.3333282471      8.8948602676      8.8948602676
    378.9924011230    186.6666717529      7.8650550842      7.8650550842
    399.2652893066    213.3333282471      5.8455400467      5.8455400467
    399.3702392578    240.0000000000      4.6308627129      4.6308627129
    379.2442932129    240.0000000000      8.5367097855      8.5367097855
    379.1183471680    213.3333282471      8.8948602676      8.8948602676
    399.3702392578    240.0000000000      4.6308627129      4.6308627129
    399.4752197266    266.6666564941      3.7107999325      3.7107999325
    379.3702392578    266.6666564941      7.2819247246      7.2819247246
    379.2442932129    240.0000000000      8.5367097855      8.5367097855
    399.4752197266    266.6666564941      3.7107999325      3.7107999325
    399.5801696777    293.3333435059      3.5179848671      3.5179848671
    379.4961853027    293.3333435059      6.1672549248      6.1672549248
    379.3702392578    266.6666564941      7.2819247246      7.2819247246
    399.5801696777    293.3333435059      3.5179848671      3.5179848671
    399.6851196289    320.0000000000      3.8695423603      3.8695423603
    379.6221618652    320.0000000000      5.8837676048      5.8837676048
    379.4961853027    293.3333435059      6.1672549248      6.1672549248
    399.6851196289    320.0000000000      3.8695423603      3.8695423603
    399.7900695801    346.6666564941      4.2456474304      4.2456474304
    379.7481079102    346.6666564941      6.2819924355      6.2819924355
    379.6221618652    320.0000000000      5.8837676048      5.8837676048
    399.7900695801    346.6666564941      4.2456474304      4.2456474304
    399.8950500488    373.3333435059      4.3507227898      4.3507227898
    379.8740539551    373.3333435059      6.7252626419      6.7252626419
    379.7481079102    346.6666564941      6.2819924355      6.2819924355
    399.8950500488    373.3333435059      4.3507227898      4.3507227898
    400.0000000000    400.0000000000      4.3507227898      4.3507227898
    380.0000000000    400.0000000000      6.7252626419      6.7252626419
    379.8740539551    373.3333435059      6.7252626419      6.7252626419
    378.1107482910      0.0000000000      3.9145898819      3.9145898819
    378.2366943359     26.6666698456      3.9145898819      3.9145898819
    357.9428100586     26.6666698456     13.0517473221     13.0517473221
    357.7958679199      0.0000000000     13.0517473221     13.0517473221
    378.2366943359     26.6666698456      3.9145898819      3.9145898819
    378.3626403809     53.3333282471      3.3605322838      3.3605322838
    358.0897521973     53.3333282471     11.8559999466     11.8559999466
    357.9428100586     26.6666698456     13.0517473221     13.0517473221
    378.3626403809     53.3333282471      3.3605322838      3.3605322838
    378.4885864258     80.0000000000      2.8759651184      2.8759651184
    358.2366943359     80.0000000000      9.8205347061      9.8205347061
    358.0897521973     53.3333282471     11.8559999466     11.8559999466
    378.4885864258     80.0000000000      2.8759651184      2.8759651184
    378.6145629883    106.6666717529      2.9726424217      2.9726424217
    358.3836364746    106.6666717529      7.2773871422      7.2773871422
    358.2366943359     80.0000000000      9.8205347061      9.8205347061
    378.6145629883    106.6666717529      2.9726424217      2.9726424217
    378.7405090332    133.3333282471      4.0287227631      4.0287227631
    358.5305786133    133.3333282471      5.1123847961      5.1123847961
    358.3836364746    106.6666717529      7.2773871422      7.2773871422
    378.7405090332    133.3333282471      4.0287227631      4.0287227631
    378.8664550781    160.0000000000      5.9137873650      5.9137873650
    358.6775207520    160.0000000000      4.4080877304      4.4080877304
    358.5305786133    133.3333282471      5.1123847961      5.1123847961
    378.8664550781    160.0000000000      5.9137873650      5.9137873650
    378.9924011230    186.6666717529      7.8650550842      7.8650550842
    358.8244628906    186.6666717529      5.6180324554      5.6180324554
    358.6775207520    160.0000000000      4.4080877304      4.4080877304
    378.9924011230    186.6666717529      7.8650550842      7.8650550842
    379.1183471680    213.3333282471      8.8948602676      8.8948602676
    358.9714050293    213.3333282471      7.9860248566      7.9860248566
    358.8244628906    186.6666717529      5.6180324554      5.6180324554
    379.1183471680    213.3333282471      8.8948602676      8.8948602676
    379.2442932129    240.0000000000      8.5367097855      8.5367097855
    359.1183471680    240.0000000000      9.9292345047      9.9292345047
    358.9714050293    213.3333282471      7.9860248566      7.9860248566
    379.2442932129    240.0000000000      8.5367097855      8.5367097855
    379.3702392578    266.6666564941      7.2819247246      7.2819247246
    359.2652893066    266.6666564941     10.2848501205     10.2848501205
    359.1183471680    240.0000000000      9.9292345047      9.9292345047
    379.3702392578    266.6666564941      7.2819247246      7.2819247246
    379.4961853027    293.3333435059      6.1672549248      6.1672549248
    359.4122314453    293.3333435059      9.2572727203      9.2572727203
    359.2652893066    266.6666564941     10.2848501205     10.2848501205
    379.4961853027    293.3333435059      6.1672549248      6.1672549248
    379.6221618652    320.0000000000      5.8837676048      5.8837676048
    359.5591735840    320.0000000000      8.0756645203      8.0756645203
    359.4122314453    293.3333435059      9.2572727203      9.2572727203