 VARIABLES= "X","Y","Z","yita"  
ZONE N=                                        3000 E=                              750 F=FEPOINT, ET=QUADRILATERAL
    500.0000000000      0.0000000000     -9.1979904175     -9.1979904175
    500.0000000000     26.6666698456     -9.1979904175     -9.1979904175
    479.7061157227     26.6666698456     -9.1979904175     -9.1979904175
    479.6851196289      0.0000000000     -9.1979904175     -9.1979904175
    500.0000000000     26.6666698456     -9.1979904175     -9.1979904175
    500.0000000000     53.3333282471     -9.2001600266     -9.2001600266
    479.7271118164     53.3333282471     -9.2001600266     -9.2001600266
    479.7061157227     26.6666698456     -9.1979904175     -9.1979904175
    500.0000000000     53.3333282471     -9.2001600266     -9.2001600266
    500.0000000000     80.0000000000     -9.1939277649     -9.1939277649
    479.7481079102     80.0000000000     -9.1939277649     -9.1939277649
    479.7271118164     53.3333282471     -9.2001600266     -9.2001600266
    500.0000000000     80.0000000000     -9.1939277649     -9.1939277649
    500.0000000000    106.6666717529     -9.1886901855     -9.1886901855
    479.7691040039    106.6666717529     -9.1886901855     -9.1886901855
    479.7481079102     80.0000000000     -9.1939277649     -9.1939277649
    500.0000000000    106.6666717529     -9.1886901855     -9.1886901855
    500.0000000000    133.3333282471     -9.1923418045     -9.1923418045
    479.7900695801    133.3333282471     -9.1923418045     -9.1923418045
    479.7691040039    106.6666717529     -9.1886901855     -9.1886901855
    500.0000000000    133.3333282471     -9.1923418045     -9.1923418045
    500.0000000000    160.0000000000     -9.1848897934     -9.1848897934
    479.8110656738    160.0000000000     -9.1848897934     -9.1848897934
    479.7900695801    133.3333282471     -9.1923418045     -9.1923418045
    500.0000000000    160.0000000000     -9.1848897934     -9.1848897934
    500.0000000000    186.6666717529     -9.1761522293     -9.1761522293
    479.8320617676    186.6666717529     -9.1761522293     -9.1761522293
    479.8110656738    160.0000000000     -9.1848897934     -9.1848897934
    500.0000000000    186.6666717529     -9.1761522293     -9.1761522293
    500.0000000000    213.3333282471     -9.1778001785     -9.1778001785
    479.8530578613    213.3333282471     -9.1778001785     -9.1778001785
    479.8320617676    186.6666717529     -9.1761522293     -9.1761522293
    500.0000000000    213.3333282471     -9.1778001785     -9.1778001785
    500.0000000000    240.0000000000     -9.1771831512     -9.1771831512
    479.8740539551    240.0000000000     -9.1771831512     -9.1771831512
    479.8530578613    213.3333282471     -9.1778001785     -9.1778001785
    500.0000000000    240.0000000000     -9.1771831512     -9.1771831512
    500.0000000000    266.6666564941     -9.1758298874     -9.1758298874
    479.8950500488    266.6666564941     -9.1758298874     -9.1758298874
    479.8740539551    240.0000000000     -9.1771831512     -9.1771831512
    500.0000000000    266.6666564941     -9.1758298874     -9.1758298874
    500.0000000000    293.3333435059     -9.1767473221     -9.1767473221
    479.9160156250    293.3333435059     -9.1767473221     -9.1767473221
    479.8950500488    266.6666564941     -9.1758298874     -9.1758298874
    500.0000000000    293.3333435059     -9.1767473221     -9.1767473221
    500.0000000000    320.0000000000     -9.1787128448     -9.1787128448
    479.9370422363    320.0000000000     -9.1787128448     -9.1787128448
    479.9160156250    293.3333435059     -9.1767473221     -9.1767473221
    500.0000000000    320.0000000000     -9.1787128448     -9.1787128448
    500.0000000000    346.6666564941     -9.1808300018     -9.1808300018
    479.9580078125    346.6666564941     -9.1808300018     -9.1808300018
    479.9370422363    320.0000000000     -9.1787128448     -9.1787128448
    500.0000000000    346.6666564941     -9.1808300018     -9.1808300018
    500.0000000000    373.3333435059     -9.1817522049     -9.1817522049
    479.9790039062    373.3333435059     -9.1817522049     -9.1817522049
    479.9580078125    346.6666564941     -9.1808300018     -9.1808300018
    500.0000000000    373.3333435059     -9.1817522049     -9.1817522049
    500.0000000000    400.0000000000     -9.1817522049     -9.1817522049
    480.0000000000    400.0000000000     -9.1817522049     -9.1817522049
    479.9790039062    373.3333435059     -9.1817522049     -9.1817522049
    479.6851196289      0.0000000000     -9.1979904175     -9.1979904175
    479.7061157227     26.6666698456     -9.1979904175     -9.1979904175
    459.4122314453     26.6666698456     -8.3784074783     -8.3784074783
    459.3702392578      0.0000000000     -8.3784074783     -8.3784074783
    479.7061157227     26.6666698456     -9.1979904175     -9.1979904175
    479.7271118164     53.3333282471     -9.2001600266     -9.2001600266
    459.4542236328     53.3333282471     -8.3765048981     -8.3765048981
    459.4122314453     26.6666698456     -8.3784074783     -8.3784074783
    479.7271118164     53.3333282471     -9.2001600266     -9.2001600266
    479.7481079102     80.0000000000     -9.1939277649     -9.1939277649
    459.4961853027     80.0000000000     -8.3702125549     -8.3702125549
    459.4542236328     53.3333282471     -8.3765048981     -8.3765048981
    479.7481079102     80.0000000000     -9.1939277649     -9.1939277649
    479.7691040039    106.6666717529     -9.1886901855     -9.1886901855
    459.5381774902    106.6666717529     -8.3602275848     -8.3602275848
    459.4961853027     80.0000000000     -8.3702125549     -8.3702125549
    479.7691040039    106.6666717529     -9.1886901855     -9.1886901855
    479.7900695801    133.3333282471     -9.1923418045     -9.1923418045
    459.5801696777    133.3333282471     -8.3490419388     -8.3490419388
    459.5381774902    106.6666717529     -8.3602275848     -8.3602275848
    479.7900695801    133.3333282471     -9.1923418045     -9.1923418045
    479.8110656738    160.0000000000     -9.1848897934     -9.1848897934
    459.6221618652    160.0000000000     -8.3402395248     -8.3402395248
    459.5801696777    133.3333282471     -8.3490419388     -8.3490419388
    479.8110656738    160.0000000000     -9.1848897934     -9.1848897934
    479.8320617676    186.6666717529     -9.1761522293     -9.1761522293
    459.6641235352    186.6666717529     -8.3381252289     -8.3381252289
    459.6221618652    160.0000000000     -8.3402395248     -8.3402395248
    479.8320617676    186.6666717529     -9.1761522293     -9.1761522293
    479.8530578613    213.3333282471     -9.1778001785     -9.1778001785
    459.7061157227    213.3333282471     -8.3443403244     -8.3443403244
    459.6641235352    186.6666717529     -8.3381252289     -8.3381252289
    479.8530578613    213.3333282471     -9.1778001785     -9.1778001785
    479.8740539551    240.0000000000     -9.1771831512     -9.1771831512
    459.7481079102    240.0000000000     -8.3555717468     -8.3555717468
    459.7061157227    213.3333282471     -8.3443403244     -8.3443403244
    479.8740539551    240.0000000000     -9.1771831512     -9.1771831512
    479.8950500488    266.6666564941     -9.1758298874     -9.1758298874
    459.7900695801    266.6666564941     -8.3666200638     -8.3666200638
    459.7481079102    240.0000000000     -8.3555717468     -8.3555717468
    479.8950500488    266.6666564941     -9.1758298874     -9.1758298874
    479.9160156250    293.3333435059     -9.1767473221     -9.1767473221
    459.8320617676    293.3333435059     -8.3739776611     -8.3739776611
    459.7900695801    266.6666564941     -8.3666200638     -8.3666200638
    479.9160156250    293.3333435059     -9.1767473221     -9.1767473221
    479.9370422363    320.0000000000     -9.1787128448     -9.1787128448
    459.8740539551    320.0000000000     -8.3774528503     -8.3774528503
    459.8320617676    293.3333435059     -8.3739776611     -8.3739776611
    479.9370422363    320.0000000000     -9.1787128448     -9.1787128448
    479.9580078125    346.6666564941     -9.1808300018     -9.1808300018
    459.9160156250    346.6666564941     -8.3794221878     -8.3794221878
    459.8740539551    320.0000000000     -8.3774528503     -8.3774528503
    479.9580078125    346.6666564941     -9.1808300018     -9.1808300018
    479.9790039062    373.3333435059     -9.1817522049     -9.1817522049
    459.9580078125    373.3333435059     -8.3817777634     -8.3817777634
    459.9160156250    346.6666564941     -8.3794221878     -8.3794221878
    479.9790039062    373.3333435059     -9.1817522049     -9.1817522049
    480.0000000000    400.0000000000     -9.1817522049     -9.1817522049
    460.0000000000    400.0000000000     -8.3817777634     -8.3817777634
    459.9580078125    373.3333435059     -8.3817777634     -8.3817777634
    459.3702392578      0.0000000000     -8.3784074783     -8.3784074783
    459.4122314453     26.6666698456     -8.3784074783     -8.3784074783
    439.1183471680     26.6666698456     -6.4988045692     -6.4988045692
    439.0553588867      0.0000000000     -6.4988045692     -6.4988045692
    459.4122314453     26.6666698456     -8.3784074783     -8.3784074783
    459.4542236328     53.3333282471     -8.3765048981     -8.3765048981
    439.1813049316     53.3333282471     -6.5234475136     -6.5234475136
    439.1183471680     26.6666698456     -6.4988045692     -6.4988045692
    459.4542236328     53.3333282471     -8.3765048981     -8.3765048981
    459.4961853027     80.0000000000     -8.3702125549     -8.3702125549
    439.2442932129     80.0000000000     -6.5615324974     -6.5615324974
    439.1813049316     53.3333282471     -6.5234475136     -6.5234475136
    459.4961853027     80.0000000000     -8.3702125549     -8.3702125549
    459.5381774902    106.6666717529     -8.3602275848     -8.3602275848
    439.3072814941    106.6666717529     -6.6100301743     -6.6100301743
    439.2442932129     80.0000000000     -6.5615324974     -6.5615324974
    459.5381774902    106.6666717529     -8.3602275848     -8.3602275848
    459.5801696777    133.3333282471     -8.3490419388     -8.3490419388
    439.3702392578    133.3333282471     -6.6585030556     -6.6585030556
    439.3072814941    106.6666717529     -6.6100301743     -6.6100301743
    459.5801696777    133.3333282471     -8.3490419388     -8.3490419388
    459.6221618652    160.0000000000     -8.3402395248     -8.3402395248
    439.4332275391    160.0000000000     -6.6913976669     -6.6913976669
    439.3702392578    133.3333282471     -6.6585030556     -6.6585030556
    459.6221618652    160.0000000000     -8.3402395248     -8.3402395248
    459.6641235352    186.6666717529     -8.3381252289     -8.3381252289
    439.4961853027    186.6666717529     -6.6973052025     -6.6973052025
    439.4332275391    160.0000000000     -6.6913976669     -6.6913976669
    459.6641235352    186.6666717529     -8.3381252289     -8.3381252289
    459.7061157227    213.3333282471     -8.3443403244     -8.3443403244
    439.5591735840    213.3333282471     -6.6785302162     -6.6785302162
    439.4961853027    186.6666717529     -6.6973052025     -6.6973052025
    459.7061157227    213.3333282471     -8.3443403244     -8.3443403244
    459.7481079102    240.0000000000     -8.3555717468     -8.3555717468
    439.6221618652    240.0000000000     -6.6521072388     -6.6521072388
    439.5591735840    213.3333282471     -6.6785302162     -6.6785302162
    459.7481079102    240.0000000000     -8.3555717468     -8.3555717468
    459.7900695801    266.6666564941     -8.3666200638     -8.3666200638
    439.6851196289    266.6666564941     -6.6386475563     -6.6386475563
    439.6221618652    240.0000000000     -6.6521072388     -6.6521072388
    459.7900695801    266.6666564941     -8.3666200638     -8.3666200638
    459.8320617676    293.3333435059     -8.3739776611     -8.3739776611
    439.7481079102    293.3333435059     -6.6467251778     -6.6467251778
    439.6851196289    266.6666564941     -6.6386475563     -6.6386475563
    459.8320617676    293.3333435059     -8.3739776611     -8.3739776611
    459.8740539551    320.0000000000     -8.3774528503     -8.3774528503
    439.8110656738    320.0000000000     -6.6678247452     -6.6678247452
    439.7481079102    293.3333435059     -6.6467251778     -6.6467251778
    459.8740539551    320.0000000000     -8.3774528503     -8.3774528503
    459.9160156250    346.6666564941     -8.3794221878     -8.3794221878
    439.8740539551    346.6666564941     -6.6865549088     -6.6865549088
    439.8110656738    320.0000000000     -6.6678247452     -6.6678247452
    459.9160156250    346.6666564941     -8.3794221878     -8.3794221878
    459.9580078125    373.3333435059     -8.3817777634     -8.3817777634
    439.9370422363    373.3333435059     -6.6961121559     -6.6961121559
    439.8740539551    346.6666564941     -6.6865549088     -6.6865549088
    459.9580078125    373.3333435059     -8.3817777634     -8.3817777634
    460.0000000000    400.0000000000     -8.3817777634     -8.3817777634
    440.0000000000    400.0000000000     -6.6961121559     -6.6961121559
    439.9370422363    373.3333435059     -6.6961121559     -6.6961121559
    439.0553588867      0.0000000000     -6.4988045692     -6.4988045692
    439.1183471680     26.6666698456     -6.4988045692     -6.4988045692
    418.8244628906     26.6666698456     -5.6697473526     -5.6697473526
    418.7405090332      0.0000000000     -5.6697473526     -5.6697473526
    439.1183471680     26.6666698456     -6.4988045692     -6.4988045692
    439.1813049316     53.3333282471     -6.5234475136     -6.5234475136
    418.9084167480     53.3333282471     -5.4709854126     -5.4709854126
    418.8244628906     26.6666698456     -5.6697473526     -5.6697473526
    439.1813049316     53.3333282471     -6.5234475136     -6.5234475136
    439.2442932129     80.0000000000     -6.5615324974     -6.5615324974
    418.9924011230     80.0000000000     -5.0936551094     -5.0936551094
    418.9084167480     53.3333282471     -5.4709854126     -5.4709854126
    439.2442932129     80.0000000000     -6.5615324974     -6.5615324974
    439.3072814941    106.6666717529     -6.6100301743     -6.6100301743
    419.0763549805    106.6666717529     -4.5524277687     -4.5524277687
    418.9924011230     80.0000000000     -5.0936551094     -5.0936551094
    439.3072814941    106.6666717529     -6.6100301743     -6.6100301743
    439.3702392578    133.3333282471     -6.6585030556     -6.6585030556
    419.1603393555    133.3333282471     -3.9620025158     -3.9620025158
    419.0763549805    106.6666717529     -4.5524277687     -4.5524277687
    439.3702392578    133.3333282471     -6.6585030556     -6.6585030556
    439.4332275391    160.0000000000     -6.6913976669     -6.6913976669
    419.2442932129    160.0000000000     -3.5215024948     -3.5215024948
    419.1603393555    133.3333282471     -3.9620025158     -3.9620025158
    439.4332275391    160.0000000000     -6.6913976669     -6.6913976669
    439.4961853027    186.6666717529     -6.6973052025     -6.6973052025
    419.3282775879    186.6666717529     -3.4092299938     -3.4092299938
    419.2442932129    160.0000000000     -3.5215024948     -3.5215024948
    439.4961853027    186.6666717529     -6.6973052025     -6.6973052025
    439.5591735840    213.3333282471     -6.6785302162     -6.6785302162
    419.4122314453    213.3333282471     -3.6488375664     -3.6488375664
    419.3282775879    186.6666717529     -3.4092299938     -3.4092299938
    439.5591735840    213.3333282471     -6.6785302162     -6.6785302162
    439.6221618652    240.0000000000     -6.6521072388     -6.6521072388
    419.4961853027    240.0000000000     -4.0639100075     -4.0639100075
    419.4122314453    213.3333282471     -3.6488375664     -3.6488375664
    439.6221618652    240.0000000000     -6.6521072388     -6.6521072388
    439.6851196289    266.6666564941     -6.6386475563     -6.6386475563
    419.5801696777    266.6666564941     -4.3925151825     -4.3925151825
    419.4961853027    240.0000000000     -4.0639100075     -4.0639100075
    439.6851196289    266.6666564941     -6.6386475563     -6.6386475563
    439.7481079102    293.3333435059     -6.6467251778     -6.6467251778
    419.6641235352    293.3333435059     -4.4828176498     -4.4828176498
    419.5801696777    266.6666564941     -4.3925151825     -4.3925151825
    439.7481079102    293.3333435059     -6.6467251778     -6.6467251778
    439.8110656738    320.0000000000     -6.6678247452     -6.6678247452
    419.7481079102    320.0000000000     -4.3873348236     -4.3873348236
    419.6641235352    293.3333435059     -4.4828176498     -4.4828176498
    439.8110656738    320.0000000000     -6.6678247452     -6.6678247452
    439.8740539551    346.6666564941     -6.6865549088     -6.6865549088
    419.8320617676    346.6666564941     -4.2739224434     -4.2739224434
    419.7481079102    320.0000000000     -4.3873348236     -4.3873348236
    439.8740539551    346.6666564941     -6.6865549088     -6.6865549088
    439.9370422363    373.3333435059     -6.6961121559     -6.6961121559
    419.9160156250    373.3333435059     -4.2433648109     -4.2433648109
    419.8320617676    346.6666564941     -4.2739224434     -4.2739224434
    439.9370422363    373.3333435059     -6.6961121559     -6.6961121559
    440.0000000000    400.0000000000     -6.6961121559     -6.6961121559
    420.0000000000    400.0000000000     -4.2433648109     -4.2433648109
    419.9160156250    373.3333435059     -4.2433648109     -4.2433648109
    418.7405090332      0.0000000000     -5.6697473526     -5.6697473526
    418.8244628906     26.6666698456     -5.6697473526     -5.6697473526
    398.5305786133     26.6666698456     -5.5273175240     -5.5273175240
    398.4256286621      0.0000000000     -5.5273175240     -5.5273175240
    418.8244628906     26.6666698456     -5.6697473526     -5.6697473526
    418.9084167480     53.3333282471     -5.4709854126     -5.4709854126
    398.6355285645     53.3333282471     -5.4546475410     -5.4546475410
    398.5305786133     26.6666698456     -5.5273175240     -5.5273175240
    418.9084167480     53.3333282471     -5.4709854126     -5.4709854126
    418.9924011230     80.0000000000     -5.0936551094     -5.0936551094
    398.7405090332     80.0000000000     -5.0341672897     -5.0341672897
    398.6355285645     53.3333282471     -5.4546475410     -5.4546475410
    418.9924011230     80.0000000000     -5.0936551094     -5.0936551094
    419.0763549805    106.6666717529     -4.5524277687     -4.5524277687
    398.8454589844    106.6666717529     -4.0345401764     -4.0345401764
    398.7405090332     80.0000000000     -5.0341672897     -5.0341672897
    419.0763549805    106.6666717529     -4.5524277687     -4.5524277687
    419.1603393555    133.3333282471     -3.9620025158     -3.9620025158
    398.9504089355    133.3333282471     -2.4695999622     -2.4695999622
    398.8454589844    106.6666717529     -4.0345401764     -4.0345401764
    419.1603393555    133.3333282471     -3.9620025158     -3.9620025158
    419.2442932129    160.0000000000     -3.5215024948     -3.5215024948
    399.0553588867    160.0000000000     -0.7450275421     -0.7450275421
    398.9504089355    133.3333282471     -2.4695999622     -2.4695999622
    419.2442932129    160.0000000000     -3.5215024948     -3.5215024948
    419.3282775879    186.6666717529     -3.4092299938     -3.4092299938
    399.1603393555    186.6666717529      0.4687500000      0.4687500000
    399.0553588867    160.0000000000     -0.7450275421     -0.7450275421
    419.3282775879    186.6666717529     -3.4092299938     -3.4092299938
    419.4122314453    213.3333282471     -3.6488375664     -3.6488375664
    399.2652893066    213.3333282471      0.6545049548      0.6545049548
    399.1603393555    186.6666717529      0.4687500000      0.4687500000
    419.4122314453    213.3333282471     -3.6488375664     -3.6488375664
    419.4961853027    240.0000000000     -4.0639100075     -4.0639100075
    399.3702392578    240.0000000000     -0.1314601004     -0.1314601004
    399.2652893066    213.3333282471      0.6545049548      0.6545049548
    419.4961853027    240.0000000000     -4.0639100075     -4.0639100075
    419.5801696777    266.6666564941     -4.3925151825     -4.3925151825
    399.4752197266    266.6666564941     -1.2412500381     -1.2412500381
    399.3702392578    240.0000000000     -0.1314601004     -0.1314601004
    419.5801696777    266.6666564941     -4.3925151825     -4.3925151825
    419.6641235352    293.3333435059     -4.4828176498     -4.4828176498
    399.5801696777    293.3333435059     -1.9361901283     -1.9361901283
    399.4752197266    266.6666564941     -1.2412500381     -1.2412500381
    419.6641235352    293.3333435059     -4.4828176498     -4.4828176498
    419.7481079102    320.0000000000     -4.3873348236     -4.3873348236
    399.6851196289    320.0000000000     -1.9517575502     -1.9517575502
    399.5801696777    293.3333435059     -1.9361901283     -1.9361901283
    419.7481079102    320.0000000000     -4.3873348236     -4.3873348236
    419.8320617676    346.6666564941     -4.2739224434     -4.2739224434
    399.7900695801    346.6666564941     -1.5956075191     -1.5956075191
    399.6851196289    320.0000000000     -1.9517575502     -1.9517575502
    419.8320617676    346.6666564941     -4.2739224434     -4.2739224434
    419.9160156250    373.3333435059     -4.2433648109     -4.2433648109
    399.8950500488    373.3333435059     -1.3208450079     -1.3208450079
    399.7900695801    346.6666564941     -1.5956075191     -1.5956075191
    419.9160156250    373.3333435059     -4.2433648109     -4.2433648109
    420.0000000000    400.0000000000     -4.2433648109     -4.2433648109
    400.0000000000    400.0000000000     -1.3208450079     -1.3208450079
    399.8950500488    373.3333435059     -1.3208450079     -1.3208450079
    398.4256286621      0.0000000000     -5.5273175240     -5.5273175240
    398.5305786133     26.6666698456     -5.5273175240     -5.5273175240
    378.2366943359     26.6666698456      1.3991526365      1.3991526365
    378.1107482910      0.0000000000      1.3991526365      1.3991526365
    398.5305786133     26.6666698456     -5.5273175240     -5.5273175240
    398.6355285645     53.3333282471     -5.4546475410     -5.4546475410
    378.3626403809     53.3333282471      0.4810500145      0.4810500145
    378.2366943359     26.6666698456      1.3991526365      1.3991526365
    398.6355285645     53.3333282471     -5.4546475410     -5.4546475410
    398.7405090332     80.0000000000     -5.0341672897     -5.0341672897
    378.4885864258     80.0000000000     -0.7408624291     -0.7408624291
    378.3626403809     53.3333282471      0.4810500145      0.4810500145
    398.7405090332     80.0000000000     -5.0341672897     -5.0341672897
    398.8454589844    106.6666717529     -4.0345401764     -4.0345401764
    378.6145629883    106.6666717529     -1.7583575249     -1.7583575249
    378.4885864258     80.0000000000     -0.7408624291     -0.7408624291
    398.8454589844    106.6666717529     -4.0345401764     -4.0345401764
    398.9504089355    133.3333282471     -2.4695999622     -2.4695999622
    378.7405090332    133.3333282471     -1.9306575060     -1.9306575060
    378.6145629883    106.6666717529     -1.7583575249     -1.7583575249
    398.9504089355    133.3333282471     -2.4695999622     -2.4695999622
    399.0553588867    160.0000000000     -0.7450275421     -0.7450275421
    378.8664550781    160.0000000000     -0.8826400042     -0.8826400042
    378.7405090332    133.3333282471     -1.9306575060     -1.9306575060
    399.0553588867    160.0000000000     -0.7450275421     -0.7450275421
    399.1603393555    186.6666717529      0.4687500000      0.4687500000
    378.9924011230    186.6666717529      1.0709450245      1.0709450245
    378.8664550781    160.0000000000     -0.8826400042     -0.8826400042
    399.1603393555    186.6666717529      0.4687500000      0.4687500000
    399.2652893066    213.3333282471      0.6545049548      0.6545049548
    379.1183471680    213.3333282471      2.9428451061      2.9428451061
    378.9924011230    186.6666717529      1.0709450245      1.0709450245
    399.2652893066    213.3333282471      0.6545049548      0.6545049548
    399.3702392578    240.0000000000     -0.1314601004     -0.1314601004
    379.2442932129    240.0000000000      3.7042450905      3.7042450905
    379.1183471680    213.3333282471      2.9428451061      2.9428451061
    399.3702392578    240.0000000000     -0.1314601004     -0.1314601004
    399.4752197266    266.6666564941     -1.2412500381     -1.2412500381
    379.3702392578    266.6666564941      3.1061501503      3.1061501503
    379.2442932129    240.0000000000      3.7042450905      3.7042450905
    399.4752197266    266.6666564941     -1.2412500381     -1.2412500381
    399.5801696777    293.3333435059     -1.9361901283     -1.9361901283
    379.4961853027    293.3333435059      1.8774175644      1.8774175644
    379.3702392578    266.6666564941      3.1061501503      3.1061501503
    399.5801696777    293.3333435059     -1.9361901283     -1.9361901283
    399.6851196289    320.0000000000     -1.9517575502     -1.9517575502
    379.6221618652    320.0000000000      1.0453724861      1.0453724861
    379.4961853027    293.3333435059      1.8774175644      1.8774175644
    399.6851196289    320.0000000000     -1.9517575502     -1.9517575502
    399.7900695801    346.6666564941     -1.5956075191     -1.5956075191
    379.7481079102    346.6666564941      1.0522251129      1.0522251129
    379.6221618652    320.0000000000      1.0453724861      1.0453724861
    399.7900695801    346.6666564941     -1.5956075191     -1.5956075191
    399.8950500488    373.3333435059     -1.3208450079     -1.3208450079
    379.8740539551    373.3333435059      1.4841475487      1.4841475487
    379.7481079102    346.6666564941      1.0522251129      1.0522251129
    399.8950500488    373.3333435059     -1.3208450079     -1.3208450079
    400.0000000000    400.0000000000     -1.3208450079     -1.3208450079
    380.0000000000    400.0000000000      1.4841475487      1.4841475487
    379.8740539551    373.3333435059      1.4841475487      1.4841475487
    378.1107482910      0.0000000000      1.3991526365      1.3991526365
    378.2366943359     26.6666698456      1.3991526365      1.3991526365
    357.9428100586     26.6666698456     11.0221996307     11.0221996307
    357.7958679199      0.0000000000     11.0221996307     11.0221996307
    378.2366943359     26.6666698456      1.3991526365      1.3991526365
    378.3626403809     53.3333282471      0.4810500145      0.4810500145
    358.0897521973     53.3333282471     10.4647550583     10.4647550583
    357.9428100586     26.6666698456     11.0221996307     11.0221996307
    378.3626403809     53.3333282471      0.4810500145      0.4810500145
    378.4885864258     80.0000000000     -0.7408624291     -0.7408624291
    358.2366943359     80.0000000000      9.0941772461      9.0941772461
    358.0897521973     53.3333282471     10.4647550583     10.4647550583
    378.4885864258     80.0000000000     -0.7408624291     -0.7408624291
    378.6145629883    106.6666717529     -1.7583575249     -1.7583575249
    358.3836364746    106.6666717529      6.7190151215      6.7190151215
    358.2366943359     80.0000000000      9.0941772461      9.0941772461
    378.6145629883    106.6666717529     -1.7583575249     -1.7583575249
    378.7405090332    133.3333282471     -1.9306575060     -1.9306575060
    358.5305786133    133.3333282471      3.7936849594      3.7936849594
    358.3836364746    106.6666717529      6.7190151215      6.7190151215
    378.7405090332    133.3333282471     -1.9306575060     -1.9306575060
    378.8664550781    160.0000000000     -0.8826400042     -0.8826400042
    358.6775207520    160.0000000000      1.4688425064      1.4688425064
    358.5305786133    133.3333282471      3.7936849594      3.7936849594
    378.8664550781    160.0000000000     -0.8826400042     -0.8826400042
    378.9924011230    186.6666717529      1.0709450245      1.0709450245
    358.8244628906    186.6666717529      0.9235725403      0.9235725403
    358.6775207520    160.0000000000      1.4688425064      1.4688425064
    378.9924011230    186.6666717529      1.0709450245      1.0709450245
    379.1183471680    213.3333282471      2.9428451061      2.9428451061
    358.9714050293    213.3333282471      2.3709974289      2.3709974289
    358.8244628906    186.6666717529      0.9235725403      0.9235725403
    379.1183471680    213.3333282471      2.9428451061      2.9428451061
    379.2442932129    240.0000000000      3.7042450905      3.7042450905
    359.1183471680    240.0000000000      4.6732749939      4.6732749939
    358.9714050293    213.3333282471      2.3709974289      2.3709974289
    379.2442932129    240.0000000000      3.7042450905      3.7042450905
    379.3702392578    266.6666564941      3.1061501503      3.1061501503
    359.2652893066    266.6666564941      6.1559453011      6.1559453011
    359.1183471680    240.0000000000      4.6732749939      4.6732749939
    379.3702392578    266.6666564941      3.1061501503      3.1061501503
    379.4961853027    293.3333435059      1.8774175644      1.8774175644
    359.4122314453    293.3333435059      6.0169219971      6.0169219971
    359.2652893066    266.6666564941      6.1559453011      6.1559453011
    379.4961853027    293.3333435059      1.8774175644      1.8774175644
    379.6221618652    320.0000000000      1.0453724861      1.0453724861
    359.5591735840    320.0000000000      4.8975100517      4.8975100517
    359.4122314453    293.3333435059      6.0169219971      6.0169219971