 VARIABLES= "X","Y","Z","yita"  
ZONE N=                                        3000 E=                              750 F=FEPOINT, ET=QUADRILATERAL
    500.0000000000      0.0000000000      9.2272243500      9.2272243500
    500.0000000000     26.6666698456      9.2272243500      9.2272243500
    479.7061157227     26.6666698456      9.2272243500      9.2272243500
    479.6851196289      0.0000000000      9.2272243500      9.2272243500
    500.0000000000     26.6666698456      9.2272243500      9.2272243500
    500.0000000000     53.3333282471      9.2289981842      9.2289981842
    479.7271118164     53.3333282471      9.2289981842      9.2289981842
    479.7061157227     26.6666698456      9.2272243500      9.2272243500
    500.0000000000     53.3333282471      9.2289981842      9.2289981842
    500.0000000000     80.0000000000      9.2199268341      9.2199268341
    479.7481079102     80.0000000000      9.2199268341      9.2199268341
    479.7271118164     53.3333282471      9.2289981842      9.2289981842
    500.0000000000     80.0000000000      9.2199268341      9.2199268341
    500.0000000000    106.6666717529      9.2125177383      9.2125177383
    479.7691040039    106.6666717529      9.2125177383      9.2125177383
    479.7481079102     80.0000000000      9.2199268341      9.2199268341
    500.0000000000    106.6666717529      9.2125177383      9.2125177383
    500.0000000000    133.3333282471      9.2164926529      9.2164926529
    479.7900695801    133.3333282471      9.2164926529      9.2164926529
    479.7691040039    106.6666717529      9.2125177383      9.2125177383
    500.0000000000    133.3333282471      9.2164926529      9.2164926529
    500.0000000000    160.0000000000      9.2009429932      9.2009429932
    479.8110656738    160.0000000000      9.2009429932      9.2009429932
    479.7900695801    133.3333282471      9.2164926529      9.2164926529
    500.0000000000    160.0000000000      9.2009429932      9.2009429932
    500.0000000000    186.6666717529      9.1838178635      9.1838178635
    479.8320617676    186.6666717529      9.1838178635      9.1838178635
    479.8110656738    160.0000000000      9.2009429932      9.2009429932
    500.0000000000    186.6666717529      9.1838178635      9.1838178635
    500.0000000000    213.3333282471      9.1850605011      9.1850605011
    479.8530578613    213.3333282471      9.1850605011      9.1850605011
    479.8320617676    186.6666717529      9.1838178635      9.1838178635
    500.0000000000    213.3333282471      9.1850605011      9.1850605011
    500.0000000000    240.0000000000      9.1803226471      9.1803226471
    479.8740539551    240.0000000000      9.1803226471      9.1803226471
    479.8530578613    213.3333282471      9.1850605011      9.1850605011
    500.0000000000    240.0000000000      9.1803226471      9.1803226471
    500.0000000000    266.6666564941      9.1737995148      9.1737995148
    479.8950500488    266.6666564941      9.1737995148      9.1737995148
    479.8740539551    240.0000000000      9.1803226471      9.1803226471
    500.0000000000    266.6666564941      9.1737995148      9.1737995148
    500.0000000000    293.3333435059      9.1730995178      9.1730995178
    479.9160156250    293.3333435059      9.1730995178      9.1730995178
    479.8950500488    266.6666564941      9.1737995148      9.1737995148
    500.0000000000    293.3333435059      9.1730995178      9.1730995178
    500.0000000000    320.0000000000      9.1765680313      9.1765680313
    479.9370422363    320.0000000000      9.1765680313      9.1765680313
    479.9160156250    293.3333435059      9.1730995178      9.1730995178
    500.0000000000    320.0000000000      9.1765680313      9.1765680313
    500.0000000000    346.6666564941      9.1809749603      9.1809749603
    479.9580078125    346.6666564941      9.1809749603      9.1809749603
    479.9370422363    320.0000000000      9.1765680313      9.1765680313
    500.0000000000    346.6666564941      9.1809749603      9.1809749603
    500.0000000000    373.3333435059      9.1810569763      9.1810569763
    479.9790039062    373.3333435059      9.1810569763      9.1810569763
    479.9580078125    346.6666564941      9.1809749603      9.1809749603
    500.0000000000    373.3333435059      9.1810569763      9.1810569763
    500.0000000000    400.0000000000      9.1810569763      9.1810569763
    480.0000000000    400.0000000000      9.1810569763      9.1810569763
    479.9790039062    373.3333435059      9.1810569763      9.1810569763
    479.6851196289      0.0000000000      9.2272243500      9.2272243500
    479.7061157227     26.6666698456      9.2272243500      9.2272243500
    459.4122314453     26.6666698456      9.0383872986      9.0383872986
    459.3702392578      0.0000000000      9.0383872986      9.0383872986
    479.7061157227     26.6666698456      9.2272243500      9.2272243500
    479.7271118164     53.3333282471      9.2289981842      9.2289981842
    459.4542236328     53.3333282471      9.0367975235      9.0367975235
    459.4122314453     26.6666698456      9.0383872986      9.0383872986
    479.7271118164     53.3333282471      9.2289981842      9.2289981842
    479.7481079102     80.0000000000      9.2199268341      9.2199268341
    459.4961853027     80.0000000000      9.0301084518      9.0301084518
    459.4542236328     53.3333282471      9.0367975235      9.0367975235
    479.7481079102     80.0000000000      9.2199268341      9.2199268341
    479.7691040039    106.6666717529      9.2125177383      9.2125177383
    459.5381774902    106.6666717529      9.0169506073      9.0169506073
    459.4961853027     80.0000000000      9.0301084518      9.0301084518
    479.7691040039    106.6666717529      9.2125177383      9.2125177383
    479.7900695801    133.3333282471      9.2164926529      9.2164926529
    459.5801696777    133.3333282471      8.9978504181      8.9978504181
    459.5381774902    106.6666717529      9.0169506073      9.0169506073
    479.7900695801    133.3333282471      9.2164926529      9.2164926529
    479.8110656738    160.0000000000      9.2009429932      9.2009429932
    459.6221618652    160.0000000000      8.9762144089      8.9762144089
    459.5801696777    133.3333282471      8.9978504181      8.9978504181
    479.8110656738    160.0000000000      9.2009429932      9.2009429932
    479.8320617676    186.6666717529      9.1838178635      9.1838178635
    459.6641235352    186.6666717529      8.9601173401      8.9601173401
    459.6221618652    160.0000000000      8.9762144089      8.9762144089
    479.8320617676    186.6666717529      9.1838178635      9.1838178635
    479.8530578613    213.3333282471      9.1850605011      9.1850605011
    459.7061157227    213.3333282471      8.9571609497      8.9571609497
    459.6641235352    186.6666717529      8.9601173401      8.9601173401
    479.8530578613    213.3333282471      9.1850605011      9.1850605011
    479.8740539551    240.0000000000      9.1803226471      9.1803226471
    459.7481079102    240.0000000000      8.9678401947      8.9678401947
    459.7061157227    213.3333282471      8.9571609497      8.9571609497
    479.8740539551    240.0000000000      9.1803226471      9.1803226471
    479.8950500488    266.6666564941      9.1737995148      9.1737995148
    459.7900695801    266.6666564941      8.9860696793      8.9860696793
    459.7481079102    240.0000000000      8.9678401947      8.9678401947
    479.8950500488    266.6666564941      9.1737995148      9.1737995148
    479.9160156250    293.3333435059      9.1730995178      9.1730995178
    459.8320617676    293.3333435059      9.0025520325      9.0025520325
    459.7900695801    266.6666564941      8.9860696793      8.9860696793
    479.9160156250    293.3333435059      9.1730995178      9.1730995178
    479.9370422363    320.0000000000      9.1765680313      9.1765680313
    459.8740539551    320.0000000000      9.0099620819      9.0099620819
    459.8320617676    293.3333435059      9.0025520325      9.0025520325
    479.9370422363    320.0000000000      9.1765680313      9.1765680313
    479.9580078125    346.6666564941      9.1809749603      9.1809749603
    459.9160156250    346.6666564941      9.0080623627      9.0080623627
    459.8740539551    320.0000000000      9.0099620819      9.0099620819
    479.9580078125    346.6666564941      9.1809749603      9.1809749603
    479.9790039062    373.3333435059      9.1810569763      9.1810569763
    459.9580078125    373.3333435059      9.0022373199      9.0022373199
    459.9160156250    346.6666564941      9.0080623627      9.0080623627
    479.9790039062    373.3333435059      9.1810569763      9.1810569763
    480.0000000000    400.0000000000      9.1810569763      9.1810569763
    460.0000000000    400.0000000000      9.0022373199      9.0022373199
    459.9580078125    373.3333435059      9.0022373199      9.0022373199
    459.3702392578      0.0000000000      9.0383872986      9.0383872986
    459.4122314453     26.6666698456      9.0383872986      9.0383872986
    439.1183471680     26.6666698456      7.6507849693      7.6507849693
    439.0553588867      0.0000000000      7.6507849693      7.6507849693
    459.4122314453     26.6666698456      9.0383872986      9.0383872986
    459.4542236328     53.3333282471      9.0367975235      9.0367975235
    439.1813049316     53.3333282471      7.6697845459      7.6697845459
    439.1183471680     26.6666698456      7.6507849693      7.6507849693
    459.4542236328     53.3333282471      9.0367975235      9.0367975235
    459.4961853027     80.0000000000      9.0301084518      9.0301084518
    439.2442932129     80.0000000000      7.7041873932      7.7041873932
    439.1813049316     53.3333282471      7.6697845459      7.6697845459
    459.4961853027     80.0000000000      9.0301084518      9.0301084518
    459.5381774902    106.6666717529      9.0169506073      9.0169506073
    439.3072814941    106.6666717529      7.7573947906      7.7573947906
    439.2442932129     80.0000000000      7.7041873932      7.7041873932
    459.5381774902    106.6666717529      9.0169506073      9.0169506073
    459.5801696777    133.3333282471      8.9978504181      8.9978504181
    439.3702392578    133.3333282471      7.8244452477      7.8244452477
    439.3072814941    106.6666717529      7.7573947906      7.7573947906
    459.5801696777    133.3333282471      8.9978504181      8.9978504181
    459.6221618652    160.0000000000      8.9762144089      8.9762144089
    439.4332275391    160.0000000000      7.8884296417      7.8884296417
    439.3702392578    133.3333282471      7.8244452477      7.8244452477
    459.6221618652    160.0000000000      8.9762144089      8.9762144089
    459.6641235352    186.6666717529      8.9601173401      8.9601173401
    439.4961853027    186.6666717529      7.9251322746      7.9251322746
    439.4332275391    160.0000000000      7.8884296417      7.8884296417
    459.6641235352    186.6666717529      8.9601173401      8.9601173401
    459.7061157227    213.3333282471      8.9571609497      8.9571609497
    439.5591735840    213.3333282471      7.9173703194      7.9173703194
    439.4961853027    186.6666717529      7.9251322746      7.9251322746
    459.7061157227    213.3333282471      8.9571609497      8.9571609497
    459.7481079102    240.0000000000      8.9678401947      8.9678401947
    439.6221618652    240.0000000000      7.8712320328      7.8712320328
    439.5591735840    213.3333282471      7.9173703194      7.9173703194
    459.7481079102    240.0000000000      8.9678401947      8.9678401947
    459.7900695801    266.6666564941      8.9860696793      8.9860696793
    439.6851196289    266.6666564941      7.8172674179      7.8172674179
    439.6221618652    240.0000000000      7.8712320328      7.8712320328
    459.7900695801    266.6666564941      8.9860696793      8.9860696793
    459.8320617676    293.3333435059      9.0025520325      9.0025520325
    439.7481079102    293.3333435059      7.7906522751      7.7906522751
    439.6851196289    266.6666564941      7.8172674179      7.8172674179
    459.8320617676    293.3333435059      9.0025520325      9.0025520325
    459.8740539551    320.0000000000      9.0099620819      9.0099620819
    439.8110656738    320.0000000000      7.8069801331      7.8069801331
    439.7481079102    293.3333435059      7.7906522751      7.7906522751
    459.8740539551    320.0000000000      9.0099620819      9.0099620819
    459.9160156250    346.6666564941      9.0080623627      9.0080623627
    439.8740539551    346.6666564941      7.8524446487      7.8524446487
    439.8110656738    320.0000000000      7.8069801331      7.8069801331
    459.9160156250    346.6666564941      9.0080623627      9.0080623627
    459.9580078125    373.3333435059      9.0022373199      9.0022373199
    439.9370422363    373.3333435059      7.8912901878      7.8912901878
    439.8740539551    346.6666564941      7.8524446487      7.8524446487
    459.9580078125    373.3333435059      9.0022373199      9.0022373199
    460.0000000000    400.0000000000      9.0022373199      9.0022373199
    440.0000000000    400.0000000000      7.8912901878      7.8912901878
    439.9370422363    373.3333435059      7.8912901878      7.8912901878
    439.0553588867      0.0000000000      7.6507849693      7.6507849693
    439.1183471680     26.6666698456      7.6507849693      7.6507849693
    418.8244628906     26.6666698456      7.9640421867      7.9640421867
    418.7405090332      0.0000000000      7.9640421867      7.9640421867
    439.1183471680     26.6666698456      7.6507849693      7.6507849693
    439.1813049316     53.3333282471      7.6697845459      7.6697845459
    418.9084167480     53.3333282471      7.8366098404      7.8366098404
    418.8244628906     26.6666698456      7.9640421867      7.9640421867
    439.1813049316     53.3333282471      7.6697845459      7.6697845459
    439.2442932129     80.0000000000      7.7041873932      7.7041873932
    418.9924011230     80.0000000000      7.5130472183      7.5130472183
    418.9084167480     53.3333282471      7.8366098404      7.8366098404
    439.2442932129     80.0000000000      7.7041873932      7.7041873932
    439.3072814941    106.6666717529      7.7573947906      7.7573947906
    419.0763549805    106.6666717529      6.9146947861      6.9146947861
    418.9924011230     80.0000000000      7.5130472183      7.5130472183
    439.3072814941    106.6666717529      7.7573947906      7.7573947906
    439.3702392578    133.3333282471      7.8244452477      7.8244452477
    419.1603393555    133.3333282471      6.0693626404      6.0693626404
    419.0763549805    106.6666717529      6.9146947861      6.9146947861
    439.3702392578    133.3333282471      7.8244452477      7.8244452477
    439.4332275391    160.0000000000      7.8884296417      7.8884296417
    419.2442932129    160.0000000000      5.1744422913      5.1744422913
    419.1603393555    133.3333282471      6.0693626404      6.0693626404
    439.4332275391    160.0000000000      7.8884296417      7.8884296417
    439.4961853027    186.6666717529      7.9251322746      7.9251322746
    419.3282775879    186.6666717529      4.5634622574      4.5634622574
    419.2442932129    160.0000000000      5.1744422913      5.1744422913
    439.4961853027    186.6666717529      7.9251322746      7.9251322746
    439.5591735840    213.3333282471      7.9173703194      7.9173703194
    419.4122314453    213.3333282471      4.5262722969      4.5262722969
    419.3282775879    186.6666717529      4.5634622574      4.5634622574
    439.5591735840    213.3333282471      7.9173703194      7.9173703194
    439.6221618652    240.0000000000      7.8712320328      7.8712320328
    419.4961853027    240.0000000000      5.0734024048      5.0734024048
    419.4122314453    213.3333282471      4.5262722969      4.5262722969
    439.6221618652    240.0000000000      7.8712320328      7.8712320328
    439.6851196289    266.6666564941      7.8172674179      7.8172674179
    419.5801696777    266.6666564941      5.8699951172      5.8699951172
    419.4961853027    240.0000000000      5.0734024048      5.0734024048
    439.6851196289    266.6666564941      7.8172674179      7.8172674179
    439.7481079102    293.3333435059      7.7906522751      7.7906522751
    419.6641235352    293.3333435059      6.4419751167      6.4419751167
    419.5801696777    266.6666564941      5.8699951172      5.8699951172
    439.7481079102    293.3333435059      7.7906522751      7.7906522751
    439.8110656738    320.0000000000      7.8069801331      7.8069801331
    419.7481079102    320.0000000000      6.4961676598      6.4961676598
    419.6641235352    293.3333435059      6.4419751167      6.4419751167
    439.8110656738    320.0000000000      7.8069801331      7.8069801331
    439.8740539551    346.6666564941      7.8524446487      7.8524446487
    419.8320617676    346.6666564941      6.1183047295      6.1183047295
    419.7481079102    320.0000000000      6.4961676598      6.4961676598
    439.8740539551    346.6666564941      7.8524446487      7.8524446487
    439.9370422363    373.3333435059      7.8912901878      7.8912901878
    419.9160156250    373.3333435059      5.6949472427      5.6949472427
    419.8320617676    346.6666564941      6.1183047295      6.1183047295
    439.9370422363    373.3333435059      7.8912901878      7.8912901878
    440.0000000000    400.0000000000      7.8912901878      7.8912901878
    420.0000000000    400.0000000000      5.6949472427      5.6949472427
    419.9160156250    373.3333435059      5.6949472427      5.6949472427
    418.7405090332      0.0000000000      7.9640421867      7.9640421867
    418.8244628906     26.6666698456      7.9640421867      7.9640421867
    398.5305786133     26.6666698456      8.3785171509      8.3785171509
    398.4256286621      0.0000000000      8.3785171509      8.3785171509
    418.8244628906     26.6666698456      7.9640421867      7.9640421867
    418.9084167480     53.3333282471      7.8366098404      7.8366098404
    398.6355285645     53.3333282471      8.6316003799      8.6316003799
    398.5305786133     26.6666698456      8.3785171509      8.3785171509
    418.9084167480     53.3333282471      7.8366098404      7.8366098404
    418.9924011230     80.0000000000      7.5130472183      7.5130472183
    398.7405090332     80.0000000000      8.6456279755      8.6456279755
    398.6355285645     53.3333282471      8.6316003799      8.6316003799
    418.9924011230     80.0000000000      7.5130472183      7.5130472183
    419.0763549805    106.6666717529      6.9146947861      6.9146947861
    398.8454589844    106.6666717529      7.9710297585      7.9710297585
    398.7405090332     80.0000000000      8.6456279755      8.6456279755
    419.0763549805    106.6666717529      6.9146947861      6.9146947861
    419.1603393555    133.3333282471      6.0693626404      6.0693626404
    398.9504089355    133.3333282471      6.2985448837      6.2985448837
    398.8454589844    106.6666717529      7.9710297585      7.9710297585
    419.1603393555    133.3333282471      6.0693626404      6.0693626404
    419.2442932129    160.0000000000      5.1744422913      5.1744422913
    399.0553588867    160.0000000000      3.7685275078      3.7685275078
    398.9504089355    133.3333282471      6.2985448837      6.2985448837
    419.2442932129    160.0000000000      5.1744422913      5.1744422913
    419.3282775879    186.6666717529      4.5634622574      4.5634622574
    399.1603393555    186.6666717529      1.1465950012      1.1465950012
    399.0553588867    160.0000000000      3.7685275078      3.7685275078
    419.3282775879    186.6666717529      4.5634622574      4.5634622574
    419.4122314453    213.3333282471      4.5262722969      4.5262722969
    399.2652893066    213.3333282471     -0.4174625278     -0.4174625278
    399.1603393555    186.6666717529      1.1465950012      1.1465950012
    419.4122314453    213.3333282471      4.5262722969      4.5262722969
    419.4961853027    240.0000000000      5.0734024048      5.0734024048
    399.3702392578    240.0000000000     -0.1128050685     -0.1128050685
    399.2652893066    213.3333282471     -0.4174625278     -0.4174625278
    419.4961853027    240.0000000000      5.0734024048      5.0734024048
    419.5801696777    266.6666564941      5.8699951172      5.8699951172
    399.4752197266    266.6666564941      1.8121224642      1.8121224642
    399.3702392578    240.0000000000     -0.1128050685     -0.1128050685
    419.5801696777    266.6666564941      5.8699951172      5.8699951172
    419.6641235352    293.3333435059      6.4419751167      6.4419751167
    399.5801696777    293.3333435059      4.0457253456      4.0457253456
    399.4752197266    266.6666564941      1.8121224642      1.8121224642
    419.6641235352    293.3333435059      6.4419751167      6.4419751167
    419.7481079102    320.0000000000      6.4961676598      6.4961676598
    399.6851196289    320.0000000000      5.1058378220      5.1058378220
    399.5801696777    293.3333435059      4.0457253456      4.0457253456
    419.7481079102    320.0000000000      6.4961676598      6.4961676598
    419.8320617676    346.6666564941      6.1183047295      6.1183047295
    399.7900695801    346.6666564941      4.5368824005      4.5368824005
    399.6851196289    320.0000000000      5.1058378220      5.1058378220
    419.8320617676    346.6666564941      6.1183047295      6.1183047295
    419.9160156250    373.3333435059      5.6949472427      5.6949472427
    399.8950500488    373.3333435059      3.3034949303      3.3034949303
    399.7900695801    346.6666564941      4.5368824005      4.5368824005
    419.9160156250    373.3333435059      5.6949472427      5.6949472427
    420.0000000000    400.0000000000      5.6949472427      5.6949472427
    400.0000000000    400.0000000000      3.3034949303      3.3034949303
    399.8950500488    373.3333435059      3.3034949303      3.3034949303
    398.4256286621      0.0000000000      8.3785171509      8.3785171509
    398.5305786133     26.6666698456      8.3785171509      8.3785171509
    378.2366943359     26.6666698456     -0.3693701029     -0.3693701029
    378.1107482910      0.0000000000     -0.3693701029     -0.3693701029
    398.5305786133     26.6666698456      8.3785171509      8.3785171509
    398.6355285645     53.3333282471      8.6316003799      8.6316003799
    378.3626403809     53.3333282471      0.7854378223      0.7854378223
    378.2366943359     26.6666698456     -0.3693701029     -0.3693701029
    398.6355285645     53.3333282471      8.6316003799      8.6316003799
    398.7405090332     80.0000000000      8.6456279755      8.6456279755
    378.4885864258     80.0000000000      2.5108799934      2.5108799934
    378.3626403809     53.3333282471      0.7854378223      0.7854378223
    398.7405090332     80.0000000000      8.6456279755      8.6456279755
    398.8454589844    106.6666717529      7.9710297585      7.9710297585
    378.6145629883    106.6666717529      4.3442325592      4.3442325592
    378.4885864258     80.0000000000      2.5108799934      2.5108799934
    398.8454589844    106.6666717529      7.9710297585      7.9710297585
    398.9504089355    133.3333282471      6.2985448837      6.2985448837
    378.7405090332    133.3333282471      5.4737925529      5.4737925529
    378.6145629883    106.6666717529      4.3442325592      4.3442325592
    398.9504089355    133.3333282471      6.2985448837      6.2985448837
    399.0553588867    160.0000000000      3.7685275078      3.7685275078
    378.8664550781    160.0000000000      5.0287127495      5.0287127495
    378.7405090332    133.3333282471      5.4737925529      5.4737925529
    399.0553588867    160.0000000000      3.7685275078      3.7685275078
    399.1603393555    186.6666717529      1.1465950012      1.1465950012
    378.9924011230    186.6666717529      2.6960725784      2.6960725784
    378.8664550781    160.0000000000      5.0287127495      5.0287127495
    399.1603393555    186.6666717529      1.1465950012      1.1465950012
    399.2652893066    213.3333282471     -0.4174625278     -0.4174625278
    379.1183471680    213.3333282471     -0.6969850063     -0.6969850063
    378.9924011230    186.6666717529      2.6960725784      2.6960725784
    399.2652893066    213.3333282471     -0.4174625278     -0.4174625278
    399.3702392578    240.0000000000     -0.1128050685     -0.1128050685
    379.2442932129    240.0000000000     -3.3314502239     -3.3314502239
    379.1183471680    213.3333282471     -0.6969850063     -0.6969850063
    399.3702392578    240.0000000000     -0.1128050685     -0.1128050685
    399.4752197266    266.6666564941      1.8121224642      1.8121224642
    379.3702392578    266.6666564941     -3.6328225136     -3.6328225136
    379.2442932129    240.0000000000     -3.3314502239     -3.3314502239
    399.4752197266    266.6666564941      1.8121224642      1.8121224642
    399.5801696777    293.3333435059      4.0457253456      4.0457253456
    379.4961853027    293.3333435059     -1.6662274599     -1.6662274599
    379.3702392578    266.6666564941     -3.6328225136     -3.6328225136
    399.5801696777    293.3333435059      4.0457253456      4.0457253456
    399.6851196289    320.0000000000      5.1058378220      5.1058378220
    379.6221618652    320.0000000000      0.8583999872      0.8583999872
    379.4961853027    293.3333435059     -1.6662274599     -1.6662274599
    399.6851196289    320.0000000000      5.1058378220      5.1058378220
    399.7900695801    346.6666564941      4.5368824005      4.5368824005
    379.7481079102    346.6666564941      2.1875224113      2.1875224113
    379.6221618652    320.0000000000      0.8583999872      0.8583999872
    399.7900695801    346.6666564941      4.5368824005      4.5368824005
    399.8950500488    373.3333435059      3.3034949303      3.3034949303
    379.8740539551    373.3333435059      2.0226125717      2.0226125717
    379.7481079102    346.6666564941      2.1875224113      2.1875224113
    399.8950500488    373.3333435059      3.3034949303      3.3034949303
    400.0000000000    400.0000000000      3.3034949303      3.3034949303
    380.0000000000    400.0000000000      2.0226125717      2.0226125717
    379.8740539551    373.3333435059      2.0226125717      2.0226125717
    378.1107482910      0.0000000000     -0.3693701029     -0.3693701029
    378.2366943359     26.6666698456     -0.3693701029     -0.3693701029
    357.9428100586     26.6666698456    -10.3954925537    -10.3954925537
    357.7958679199      0.0000000000    -10.3954925537    -10.3954925537
    378.2366943359     26.6666698456     -0.3693701029     -0.3693701029
    378.3626403809     53.3333282471      0.7854378223      0.7854378223
    358.0897521973     53.3333282471    -10.1856794357    -10.1856794357
    357.9428100586     26.6666698456    -10.3954925537    -10.3954925537
    378.3626403809     53.3333282471      0.7854378223      0.7854378223
    378.4885864258     80.0000000000      2.5108799934      2.5108799934
    358.2366943359     80.0000000000     -9.1838951111     -9.1838951111
    358.0897521973     53.3333282471    -10.1856794357    -10.1856794357
    378.4885864258     80.0000000000      2.5108799934      2.5108799934
    378.6145629883    106.6666717529      4.3442325592      4.3442325592
    358.3836364746    106.6666717529     -6.8513650894     -6.8513650894
    358.2366943359     80.0000000000     -9.1838951111     -9.1838951111
    378.6145629883    106.6666717529      4.3442325592      4.3442325592
    378.7405090332    133.3333282471      5.4737925529      5.4737925529
    358.5305786133    133.3333282471     -3.2457375526     -3.2457375526
    358.3836364746    106.6666717529     -6.8513650894     -6.8513650894
    378.7405090332    133.3333282471      5.4737925529      5.4737925529
    378.8664550781    160.0000000000      5.0287127495      5.0287127495
    358.6775207520    160.0000000000      0.5746476650      0.5746476650
    358.5305786133    133.3333282471     -3.2457375526     -3.2457375526
    378.8664550781    160.0000000000      5.0287127495      5.0287127495
    378.9924011230    186.6666717529      2.6960725784      2.6960725784
    358.8244628906    186.6666717529      2.8113551140      2.8113551140
    358.6775207520    160.0000000000      0.5746476650      0.5746476650
    378.9924011230    186.6666717529      2.6960725784      2.6960725784
    379.1183471680    213.3333282471     -0.6969850063     -0.6969850063
    358.9714050293    213.3333282471      2.0492649078      2.0492649078
    358.8244628906    186.6666717529      2.8113551140      2.8113551140
    379.1183471680    213.3333282471     -0.6969850063     -0.6969850063
    379.2442932129    240.0000000000     -3.3314502239     -3.3314502239
    359.1183471680    240.0000000000     -1.3919701576     -1.3919701576
    358.9714050293    213.3333282471      2.0492649078      2.0492649078
    379.2442932129    240.0000000000     -3.3314502239     -3.3314502239
    379.3702392578    266.6666564941     -3.6328225136     -3.6328225136
    359.2652893066    266.6666564941     -5.2774400711     -5.2774400711
    359.1183471680    240.0000000000     -1.3919701576     -1.3919701576
    379.3702392578    266.6666564941     -3.6328225136     -3.6328225136
    379.4961853027    293.3333435059     -1.6662274599     -1.6662274599
    359.4122314453    293.3333435059     -7.0159101486     -7.0159101486
    359.2652893066    266.6666564941     -5.2774400711     -5.2774400711
    379.4961853027    293.3333435059     -1.6662274599     -1.6662274599
    379.6221618652    320.0000000000      0.8583999872      0.8583999872
    359.5591735840    320.0000000000     -5.6064376831     -5.6064376831
    359.4122314453    293.3333435059     -7.0159101486     -7.0159101486