 VARIABLES= "X","Y","Z","yita"  
ZONE N=                                        3000 E=                              750 F=FEPOINT, ET=QUADRILATERAL
    500.0000000000      0.0000000000     -6.8920698166     -6.8920698166
    500.0000000000     26.6666698456     -6.8920698166     -6.8920698166
    479.7061157227     26.6666698456     -6.8920698166     -6.8920698166
    479.6851196289      0.0000000000     -6.8920698166     -6.8920698166
    500.0000000000     26.6666698456     -6.8920698166     -6.8920698166
    500.0000000000     53.3333282471     -6.8912248611     -6.8912248611
    479.7271118164     53.3333282471     -6.8912248611     -6.8912248611
    479.7061157227     26.6666698456     -6.8920698166     -6.8920698166
    500.0000000000     53.3333282471     -6.8912248611     -6.8912248611
    500.0000000000     80.0000000000     -6.8886275291     -6.8886275291
    479.7481079102     80.0000000000     -6.8886275291     -6.8886275291
    479.7271118164     53.3333282471     -6.8912248611     -6.8912248611
    500.0000000000     80.0000000000     -6.8886275291     -6.8886275291
    500.0000000000    106.6666717529     -6.8868722916     -6.8868722916
    479.7691040039    106.6666717529     -6.8868722916     -6.8868722916
    479.7481079102     80.0000000000     -6.8886275291     -6.8886275291
    500.0000000000    106.6666717529     -6.8868722916     -6.8868722916
    500.0000000000    133.3333282471     -6.8875651360     -6.8875651360
    479.7900695801    133.3333282471     -6.8875651360     -6.8875651360
    479.7691040039    106.6666717529     -6.8868722916     -6.8868722916
    500.0000000000    133.3333282471     -6.8875651360     -6.8875651360
    500.0000000000    160.0000000000     -6.8828773499     -6.8828773499
    479.8110656738    160.0000000000     -6.8828773499     -6.8828773499
    479.7900695801    133.3333282471     -6.8875651360     -6.8875651360
    500.0000000000    160.0000000000     -6.8828773499     -6.8828773499
    500.0000000000    186.6666717529     -6.8777999878     -6.8777999878
    479.8320617676    186.6666717529     -6.8777999878     -6.8777999878
    479.8110656738    160.0000000000     -6.8828773499     -6.8828773499
    500.0000000000    186.6666717529     -6.8777999878     -6.8777999878
    500.0000000000    213.3333282471     -6.8776702881     -6.8776702881
    479.8530578613    213.3333282471     -6.8776702881     -6.8776702881
    479.8320617676    186.6666717529     -6.8777999878     -6.8777999878
    500.0000000000    213.3333282471     -6.8776702881     -6.8776702881
    500.0000000000    240.0000000000     -6.8745374680     -6.8745374680
    479.8740539551    240.0000000000     -6.8745374680     -6.8745374680
    479.8530578613    213.3333282471     -6.8776702881     -6.8776702881
    500.0000000000    240.0000000000     -6.8745374680     -6.8745374680
    500.0000000000    266.6666564941     -6.8707771301     -6.8707771301
    479.8950500488    266.6666564941     -6.8707771301     -6.8707771301
    479.8740539551    240.0000000000     -6.8745374680     -6.8745374680
    500.0000000000    266.6666564941     -6.8707771301     -6.8707771301
    500.0000000000    293.3333435059     -6.8696823120     -6.8696823120
    479.9160156250    293.3333435059     -6.8696823120     -6.8696823120
    479.8950500488    266.6666564941     -6.8707771301     -6.8707771301
    500.0000000000    293.3333435059     -6.8696823120     -6.8696823120
    500.0000000000    320.0000000000     -6.8681173325     -6.8681173325
    479.9370422363    320.0000000000     -6.8681173325     -6.8681173325
    479.9160156250    293.3333435059     -6.8696823120     -6.8696823120
    500.0000000000    320.0000000000     -6.8681173325     -6.8681173325
    500.0000000000    346.6666564941     -6.8663754463     -6.8663754463
    479.9580078125    346.6666564941     -6.8663754463     -6.8663754463
    479.9370422363    320.0000000000     -6.8681173325     -6.8681173325
    500.0000000000    346.6666564941     -6.8663754463     -6.8663754463
    500.0000000000    373.3333435059     -6.8649325371     -6.8649325371
    479.9790039062    373.3333435059     -6.8649325371     -6.8649325371
    479.9580078125    346.6666564941     -6.8663754463     -6.8663754463
    500.0000000000    373.3333435059     -6.8649325371     -6.8649325371
    500.0000000000    400.0000000000     -6.8649325371     -6.8649325371
    480.0000000000    400.0000000000     -6.8649325371     -6.8649325371
    479.9790039062    373.3333435059     -6.8649325371     -6.8649325371
    479.6851196289      0.0000000000     -6.8920698166     -6.8920698166
    479.7061157227     26.6666698456     -6.8920698166     -6.8920698166
    459.4122314453     26.6666698456     -8.5291023254     -8.5291023254
    459.3702392578      0.0000000000     -8.5291023254     -8.5291023254
    479.7061157227     26.6666698456     -6.8920698166     -6.8920698166
    479.7271118164     53.3333282471     -6.8912248611     -6.8912248611
    459.4542236328     53.3333282471     -8.5271005630     -8.5271005630
    459.4122314453     26.6666698456     -8.5291023254     -8.5291023254
    479.7271118164     53.3333282471     -6.8912248611     -6.8912248611
    479.7481079102     80.0000000000     -6.8886275291     -6.8886275291
    459.4961853027     80.0000000000     -8.5235347748     -8.5235347748
    459.4542236328     53.3333282471     -8.5271005630     -8.5271005630
    479.7481079102     80.0000000000     -6.8886275291     -6.8886275291
    479.7691040039    106.6666717529     -6.8868722916     -6.8868722916
    459.5381774902    106.6666717529     -8.5172653198     -8.5172653198
    459.4961853027     80.0000000000     -8.5235347748     -8.5235347748
    479.7691040039    106.6666717529     -6.8868722916     -6.8868722916
    479.7900695801    133.3333282471     -6.8875651360     -6.8875651360
    459.5801696777    133.3333282471     -8.5083827972     -8.5083827972
    459.5381774902    106.6666717529     -8.5172653198     -8.5172653198
    479.7900695801    133.3333282471     -6.8875651360     -6.8875651360
    479.8110656738    160.0000000000     -6.8828773499     -6.8828773499
    459.6221618652    160.0000000000     -8.4986772537     -8.4986772537
    459.5801696777    133.3333282471     -8.5083827972     -8.5083827972
    479.8110656738    160.0000000000     -6.8828773499     -6.8828773499
    479.8320617676    186.6666717529     -6.8777999878     -6.8777999878
    459.6641235352    186.6666717529     -8.4912300110     -8.4912300110
    459.6221618652    160.0000000000     -8.4986772537     -8.4986772537
    479.8320617676    186.6666717529     -6.8777999878     -6.8777999878
    479.8530578613    213.3333282471     -6.8776702881     -6.8776702881
    459.7061157227    213.3333282471     -8.4880952835     -8.4880952835
    459.6641235352    186.6666717529     -8.4912300110     -8.4912300110
    479.8530578613    213.3333282471     -6.8776702881     -6.8776702881
    479.8740539551    240.0000000000     -6.8745374680     -6.8745374680
    459.7481079102    240.0000000000     -8.4885101318     -8.4885101318
    459.7061157227    213.3333282471     -8.4880952835     -8.4880952835
    479.8740539551    240.0000000000     -6.8745374680     -6.8745374680
    479.8950500488    266.6666564941     -6.8707771301     -6.8707771301
    459.7900695801    266.6666564941     -8.4900398254     -8.4900398254
    459.7481079102    240.0000000000     -8.4885101318     -8.4885101318
    479.8950500488    266.6666564941     -6.8707771301     -6.8707771301
    479.9160156250    293.3333435059     -6.8696823120     -6.8696823120
    459.8320617676    293.3333435059     -8.4905300140     -8.4905300140
    459.7900695801    266.6666564941     -8.4900398254     -8.4900398254
    479.9160156250    293.3333435059     -6.8696823120     -6.8696823120
    479.9370422363    320.0000000000     -6.8681173325     -6.8681173325
    459.8740539551    320.0000000000     -8.4894180298     -8.4894180298
    459.8320617676    293.3333435059     -8.4905300140     -8.4905300140
    479.9370422363    320.0000000000     -6.8681173325     -6.8681173325
    479.9580078125    346.6666564941     -6.8663754463     -6.8663754463
    459.9160156250    346.6666564941     -8.4876050949     -8.4876050949
    459.8740539551    320.0000000000     -8.4894180298     -8.4894180298
    479.9580078125    346.6666564941     -6.8663754463     -6.8663754463
    479.9790039062    373.3333435059     -6.8649325371     -6.8649325371
    459.9580078125    373.3333435059     -8.4858798981     -8.4858798981
    459.9160156250    346.6666564941     -8.4876050949     -8.4876050949
    479.9790039062    373.3333435059     -6.8649325371     -6.8649325371
    480.0000000000    400.0000000000     -6.8649325371     -6.8649325371
    460.0000000000    400.0000000000     -8.4858798981     -8.4858798981
    459.9580078125    373.3333435059     -8.4858798981     -8.4858798981
    459.3702392578      0.0000000000     -8.5291023254     -8.5291023254
    459.4122314453     26.6666698456     -8.5291023254     -8.5291023254
    439.1183471680     26.6666698456     -9.1091098785     -9.1091098785
    439.0553588867      0.0000000000     -9.1091098785     -9.1091098785
    459.4122314453     26.6666698456     -8.5291023254     -8.5291023254
    459.4542236328     53.3333282471     -8.5271005630     -8.5271005630
    439.1813049316     53.3333282471     -9.1146059036     -9.1146059036
    439.1183471680     26.6666698456     -9.1091098785     -9.1091098785
    459.4542236328     53.3333282471     -8.5271005630     -8.5271005630
    459.4961853027     80.0000000000     -8.5235347748     -8.5235347748
    439.2442932129     80.0000000000     -9.1285200119     -9.1285200119
    439.1813049316     53.3333282471     -9.1146059036     -9.1146059036
    459.4961853027     80.0000000000     -8.5235347748     -8.5235347748
    459.5381774902    106.6666717529     -8.5172653198     -8.5172653198
    439.3072814941    106.6666717529     -9.1530094147     -9.1530094147
    439.2442932129     80.0000000000     -9.1285200119     -9.1285200119
    459.5381774902    106.6666717529     -8.5172653198     -8.5172653198
    459.5801696777    133.3333282471     -8.5083827972     -8.5083827972
    439.3702392578    133.3333282471     -9.1845703125     -9.1845703125
    439.3072814941    106.6666717529     -9.1530094147     -9.1530094147
    459.5801696777    133.3333282471     -8.5083827972     -8.5083827972
    459.6221618652    160.0000000000     -8.4986772537     -8.4986772537
    439.4332275391    160.0000000000     -9.2134056091     -9.2134056091
    439.3702392578    133.3333282471     -9.1845703125     -9.1845703125
    459.6221618652    160.0000000000     -8.4986772537     -8.4986772537
    459.6641235352    186.6666717529     -8.4912300110     -8.4912300110
    439.4961853027    186.6666717529     -9.2284049988     -9.2284049988
    439.4332275391    160.0000000000     -9.2134056091     -9.2134056091
    459.6641235352    186.6666717529     -8.4912300110     -8.4912300110
    459.7061157227    213.3333282471     -8.4880952835     -8.4880952835
    439.5591735840    213.3333282471     -9.2254552841     -9.2254552841
    439.4961853027    186.6666717529     -9.2284049988     -9.2284049988
    459.7061157227    213.3333282471     -8.4880952835     -8.4880952835
    459.7481079102    240.0000000000     -8.4885101318     -8.4885101318
    439.6221618652    240.0000000000     -9.2115001678     -9.2115001678
    439.5591735840    213.3333282471     -9.2254552841     -9.2254552841
    459.7481079102    240.0000000000     -8.4885101318     -8.4885101318
    459.7900695801    266.6666564941     -8.4900398254     -8.4900398254
    439.6851196289    266.6666564941     -9.1992597580     -9.1992597580
    439.6221618652    240.0000000000     -9.2115001678     -9.2115001678
    459.7900695801    266.6666564941     -8.4900398254     -8.4900398254
    459.8320617676    293.3333435059     -8.4905300140     -8.4905300140
    439.7481079102    293.3333435059     -9.1967716217     -9.1967716217
    439.6851196289    266.6666564941     -9.1992597580     -9.1992597580
    459.8320617676    293.3333435059     -8.4905300140     -8.4905300140
    459.8740539551    320.0000000000     -8.4894180298     -8.4894180298
    439.8110656738    320.0000000000     -9.2013874054     -9.2013874054
    439.7481079102    293.3333435059     -9.1967716217     -9.1967716217
    459.8740539551    320.0000000000     -8.4894180298     -8.4894180298
    459.9160156250    346.6666564941     -8.4876050949     -8.4876050949
    439.8740539551    346.6666564941     -9.2056074142     -9.2056074142
    439.8110656738    320.0000000000     -9.2013874054     -9.2013874054
    459.9160156250    346.6666564941     -8.4876050949     -8.4876050949
    459.9580078125    373.3333435059     -8.4858798981     -8.4858798981
    439.9370422363    373.3333435059     -9.2065753937     -9.2065753937
    439.8740539551    346.6666564941     -9.2056074142     -9.2056074142
    459.9580078125    373.3333435059     -8.4858798981     -8.4858798981
    460.0000000000    400.0000000000     -8.4858798981     -8.4858798981
    440.0000000000    400.0000000000     -9.2065753937     -9.2065753937
    439.9370422363    373.3333435059     -9.2065753937     -9.2065753937
    439.0553588867      0.0000000000     -9.1091098785     -9.1091098785
    439.1183471680     26.6666698456     -9.1091098785     -9.1091098785
    418.8244628906     26.6666698456     -9.9837026596     -9.9837026596
    418.7405090332      0.0000000000     -9.9837026596     -9.9837026596
    439.1183471680     26.6666698456     -9.1091098785     -9.1091098785
    439.1813049316     53.3333282471     -9.1146059036     -9.1146059036
    418.9084167480     53.3333282471     -9.9607820511     -9.9607820511
    418.8244628906     26.6666698456     -9.9837026596     -9.9837026596
    439.1813049316     53.3333282471     -9.1146059036     -9.1146059036
    439.2442932129     80.0000000000     -9.1285200119     -9.1285200119
    418.9924011230     80.0000000000     -9.8496675491     -9.8496675491
    418.9084167480     53.3333282471     -9.9607820511     -9.9607820511
    439.2442932129     80.0000000000     -9.1285200119     -9.1285200119
    439.3072814941    106.6666717529     -9.1530094147     -9.1530094147
    419.0763549805    106.6666717529     -9.6018104553     -9.6018104553
    418.9924011230     80.0000000000     -9.8496675491     -9.8496675491
    439.3072814941    106.6666717529     -9.1530094147     -9.1530094147
    439.3702392578    133.3333282471     -9.1845703125     -9.1845703125
    419.1603393555    133.3333282471     -9.2376127243     -9.2376127243
    419.0763549805    106.6666717529     -9.6018104553     -9.6018104553
    439.3702392578    133.3333282471     -9.1845703125     -9.1845703125
    439.4332275391    160.0000000000     -9.2134056091     -9.2134056091
    419.2442932129    160.0000000000     -8.8653697968     -8.8653697968
    419.1603393555    133.3333282471     -9.2376127243     -9.2376127243
    439.4332275391    160.0000000000     -9.2134056091     -9.2134056091
    439.4961853027    186.6666717529     -9.2284049988     -9.2284049988
    419.3282775879    186.6666717529     -8.6310596466     -8.6310596466
    419.2442932129    160.0000000000     -8.8653697968     -8.8653697968
    439.4961853027    186.6666717529     -9.2284049988     -9.2284049988
    439.5591735840    213.3333282471     -9.2254552841     -9.2254552841
    419.4122314453    213.3333282471     -8.6140079498     -8.6140079498
    419.3282775879    186.6666717529     -8.6310596466     -8.6310596466
    439.5591735840    213.3333282471     -9.2254552841     -9.2254552841
    439.6221618652    240.0000000000     -9.2115001678     -9.2115001678
    419.4961853027    240.0000000000     -8.7593727112     -8.7593727112
    419.4122314453    213.3333282471     -8.6140079498     -8.6140079498
    439.6221618652    240.0000000000     -9.2115001678     -9.2115001678
    439.6851196289    266.6666564941     -9.1992597580     -9.1992597580
    419.5801696777    266.6666564941     -8.9226970673     -8.9226970673
    419.4961853027    240.0000000000     -8.7593727112     -8.7593727112
    439.6851196289    266.6666564941     -9.1992597580     -9.1992597580
    439.7481079102    293.3333435059     -9.1967716217     -9.1967716217
    419.6641235352    293.3333435059     -8.9913148880     -8.9913148880
    419.5801696777    266.6666564941     -8.9226970673     -8.9226970673
    439.7481079102    293.3333435059     -9.1967716217     -9.1967716217
    439.8110656738    320.0000000000     -9.2013874054     -9.2013874054
    419.7481079102    320.0000000000     -8.9715232849     -8.9715232849
    419.6641235352    293.3333435059     -8.9913148880     -8.9913148880
    439.8110656738    320.0000000000     -9.2013874054     -9.2013874054
    439.8740539551    346.6666564941     -9.2056074142     -9.2056074142
    419.8320617676    346.6666564941     -8.9400701523     -8.9400701523
    419.7481079102    320.0000000000     -8.9715232849     -8.9715232849
    439.8740539551    346.6666564941     -9.2056074142     -9.2056074142
    439.9370422363    373.3333435059     -9.2065753937     -9.2065753937
    419.9160156250    373.3333435059     -8.9357204437     -8.9357204437
    419.8320617676    346.6666564941     -8.9400701523     -8.9400701523
    439.9370422363    373.3333435059     -9.2065753937     -9.2065753937
    440.0000000000    400.0000000000     -9.2065753937     -9.2065753937
    420.0000000000    400.0000000000     -8.9357204437     -8.9357204437
    419.9160156250    373.3333435059     -8.9357204437     -8.9357204437
    418.7405090332      0.0000000000     -9.9837026596     -9.9837026596
    418.8244628906     26.6666698456     -9.9837026596     -9.9837026596
    398.5305786133     26.6666698456     -9.4646272659     -9.4646272659
    398.4256286621      0.0000000000     -9.4646272659     -9.4646272659
    418.8244628906     26.6666698456     -9.9837026596     -9.9837026596
    418.9084167480     53.3333282471     -9.9607820511     -9.9607820511
    398.6355285645     53.3333282471     -9.7752428055     -9.7752428055
    398.5305786133     26.6666698456     -9.4646272659     -9.4646272659
    418.9084167480     53.3333282471     -9.9607820511     -9.9607820511
    418.9924011230     80.0000000000     -9.8496675491     -9.8496675491
    398.7405090332     80.0000000000    -10.0379905701    -10.0379905701
    398.6355285645     53.3333282471     -9.7752428055     -9.7752428055
    418.9924011230     80.0000000000     -9.8496675491     -9.8496675491
    419.0763549805    106.6666717529     -9.6018104553     -9.6018104553
    398.8454589844    106.6666717529     -9.9778680801     -9.9778680801
    398.7405090332     80.0000000000    -10.0379905701    -10.0379905701
    419.0763549805    106.6666717529     -9.6018104553     -9.6018104553
    419.1603393555    133.3333282471     -9.2376127243     -9.2376127243
    398.9504089355    133.3333282471     -9.4197425842     -9.4197425842
    398.8454589844    106.6666717529     -9.9778680801     -9.9778680801
    419.1603393555    133.3333282471     -9.2376127243     -9.2376127243
    419.2442932129    160.0000000000     -8.8653697968     -8.8653697968
    399.0553588867    160.0000000000     -8.4583034515     -8.4583034515
    398.9504089355    133.3333282471     -9.4197425842     -9.4197425842
    419.2442932129    160.0000000000     -8.8653697968     -8.8653697968
    419.3282775879    186.6666717529     -8.6310596466     -8.6310596466
    399.1603393555    186.6666717529     -7.4817676544     -7.4817676544
    399.0553588867    160.0000000000     -8.4583034515     -8.4583034515
    419.3282775879    186.6666717529     -8.6310596466     -8.6310596466
    419.4122314453    213.3333282471     -8.6140079498     -8.6140079498
    399.2652893066    213.3333282471     -6.9416122437     -6.9416122437
    399.1603393555    186.6666717529     -7.4817676544     -7.4817676544
    419.4122314453    213.3333282471     -8.6140079498     -8.6140079498
    419.4961853027    240.0000000000     -8.7593727112     -8.7593727112
    399.3702392578    240.0000000000     -7.0044975281     -7.0044975281
    399.2652893066    213.3333282471     -6.9416122437     -6.9416122437
    419.4961853027    240.0000000000     -8.7593727112     -8.7593727112
    419.5801696777    266.6666564941     -8.9226970673     -8.9226970673
    399.4752197266    266.6666564941     -7.4254798889     -7.4254798889
    399.3702392578    240.0000000000     -7.0044975281     -7.0044975281
    419.5801696777    266.6666564941     -8.9226970673     -8.9226970673
    419.6641235352    293.3333435059     -8.9913148880     -8.9913148880
    399.5801696777    293.3333435059     -7.7787275314     -7.7787275314
    399.4752197266    266.6666564941     -7.4254798889     -7.4254798889
    419.6641235352    293.3333435059     -8.9913148880     -8.9913148880
    419.7481079102    320.0000000000     -8.9715232849     -8.9715232849
    399.6851196289    320.0000000000     -7.8514800072     -7.8514800072
    399.5801696777    293.3333435059     -7.7787275314     -7.7787275314
    419.7481079102    320.0000000000     -8.9715232849     -8.9715232849
    419.8320617676    346.6666564941     -8.9400701523     -8.9400701523
    399.7900695801    346.6666564941     -7.7671327591     -7.7671327591
    399.6851196289    320.0000000000     -7.8514800072     -7.8514800072
    419.8320617676    346.6666564941     -8.9400701523     -8.9400701523
    419.9160156250    373.3333435059     -8.9357204437     -8.9357204437
    399.8950500488    373.3333435059     -7.7100677490     -7.7100677490
    399.7900695801    346.6666564941     -7.7671327591     -7.7671327591
    419.9160156250    373.3333435059     -8.9357204437     -8.9357204437
    420.0000000000    400.0000000000     -8.9357204437     -8.9357204437
    400.0000000000    400.0000000000     -7.7100677490     -7.7100677490
    399.8950500488    373.3333435059     -7.7100677490     -7.7100677490
    398.4256286621      0.0000000000     -9.4646272659     -9.4646272659
    398.5305786133     26.6666698456     -9.4646272659     -9.4646272659
    378.2366943359     26.6666698456     -3.3580470085     -3.3580470085
    378.1107482910      0.0000000000     -3.3580470085     -3.3580470085
    398.5305786133     26.6666698456     -9.4646272659     -9.4646272659
    398.6355285645     53.3333282471     -9.7752428055     -9.7752428055
    378.3626403809     53.3333282471     -4.0261073112     -4.0261073112
    378.2366943359     26.6666698456     -3.3580470085     -3.3580470085
    398.6355285645     53.3333282471     -9.7752428055     -9.7752428055
    398.7405090332     80.0000000000    -10.0379905701    -10.0379905701
    378.4885864258     80.0000000000     -5.0994424820     -5.0994424820
    378.3626403809     53.3333282471     -4.0261073112     -4.0261073112
    398.7405090332     80.0000000000    -10.0379905701    -10.0379905701
    398.8454589844    106.6666717529     -9.9778680801     -9.9778680801
    378.6145629883    106.6666717529     -6.3568129539     -6.3568129539
    378.4885864258     80.0000000000     -5.0994424820     -5.0994424820
    398.8454589844    106.6666717529     -9.9778680801     -9.9778680801
    398.9504089355    133.3333282471     -9.4197425842     -9.4197425842
    378.7405090332    133.3333282471     -7.3410401344     -7.3410401344
    378.6145629883    106.6666717529     -6.3568129539     -6.3568129539
    398.9504089355    133.3333282471     -9.4197425842     -9.4197425842
    399.0553588867    160.0000000000     -8.4583034515     -8.4583034515
    378.8664550781    160.0000000000     -7.5727896690     -7.5727896690
    378.7405090332    133.3333282471     -7.3410401344     -7.3410401344
    399.0553588867    160.0000000000     -8.4583034515     -8.4583034515
    399.1603393555    186.6666717529     -7.4817676544     -7.4817676544
    378.9924011230    186.6666717529     -6.9294600487     -6.9294600487
    378.8664550781    160.0000000000     -7.5727896690     -7.5727896690
    399.1603393555    186.6666717529     -7.4817676544     -7.4817676544
    399.2652893066    213.3333282471     -6.9416122437     -6.9416122437
    379.1183471680    213.3333282471     -5.8531622887     -5.8531622887
    378.9924011230    186.6666717529     -6.9294600487     -6.9294600487
    399.2652893066    213.3333282471     -6.9416122437     -6.9416122437
    399.3702392578    240.0000000000     -7.0044975281     -7.0044975281
    379.2442932129    240.0000000000     -5.0623998642     -5.0623998642
    379.1183471680    213.3333282471     -5.8531622887     -5.8531622887
    399.3702392578    240.0000000000     -7.0044975281     -7.0044975281
    399.4752197266    266.6666564941     -7.4254798889     -7.4254798889
    379.3702392578    266.6666564941     -4.9714951515     -4.9714951515
    379.2442932129    240.0000000000     -5.0623998642     -5.0623998642
    399.4752197266    266.6666564941     -7.4254798889     -7.4254798889
    399.5801696777    293.3333435059     -7.7787275314     -7.7787275314
    379.4961853027    293.3333435059     -5.3750624657     -5.3750624657
    379.3702392578    266.6666564941     -4.9714951515     -4.9714951515
    399.5801696777    293.3333435059     -7.7787275314     -7.7787275314
    399.6851196289    320.0000000000     -7.8514800072     -7.8514800072
    379.6221618652    320.0000000000     -5.7380552292     -5.7380552292
    379.4961853027    293.3333435059     -5.3750624657     -5.3750624657
    399.6851196289    320.0000000000     -7.8514800072     -7.8514800072
    399.7900695801    346.6666564941     -7.7671327591     -7.7671327591
    379.7481079102    346.6666564941     -5.8008475304     -5.8008475304
    379.6221618652    320.0000000000     -5.7380552292     -5.7380552292
    399.7900695801    346.6666564941     -7.7671327591     -7.7671327591
    399.8950500488    373.3333435059     -7.7100677490     -7.7100677490
    379.8740539551    373.3333435059     -5.7174124718     -5.7174124718
    379.7481079102    346.6666564941     -5.8008475304     -5.8008475304
    399.8950500488    373.3333435059     -7.7100677490     -7.7100677490
    400.0000000000    400.0000000000     -7.7100677490     -7.7100677490
    380.0000000000    400.0000000000     -5.7174124718     -5.7174124718
    379.8740539551    373.3333435059     -5.7174124718     -5.7174124718
    378.1107482910      0.0000000000     -3.3580470085     -3.3580470085
    378.2366943359     26.6666698456     -3.3580470085     -3.3580470085
    357.9428100586     26.6666698456      1.0827950239      1.0827950239
    357.7958679199      0.0000000000      1.0827950239      1.0827950239
    378.2366943359     26.6666698456     -3.3580470085     -3.3580470085
    378.3626403809     53.3333282471     -4.0261073112     -4.0261073112
    358.0897521973     53.3333282471      1.4152700901      1.4152700901
    357.9428100586     26.6666698456      1.0827950239      1.0827950239
    378.3626403809     53.3333282471     -4.0261073112     -4.0261073112
    378.4885864258     80.0000000000     -5.0994424820     -5.0994424820
    358.2366943359     80.0000000000      1.4382624626      1.4382624626
    358.0897521973     53.3333282471      1.4152700901      1.4152700901
    378.4885864258     80.0000000000     -5.0994424820     -5.0994424820
    378.6145629883    106.6666717529     -6.3568129539     -6.3568129539
    358.3836364746    106.6666717529      0.6603499651      0.6603499651
    358.2366943359     80.0000000000      1.4382624626      1.4382624626
    378.6145629883    106.6666717529     -6.3568129539     -6.3568129539
    378.7405090332    133.3333282471     -7.3410401344     -7.3410401344
    358.5305786133    133.3333282471     -1.0232324600     -1.0232324600
    358.3836364746    106.6666717529      0.6603499651      0.6603499651
    378.7405090332    133.3333282471     -7.3410401344     -7.3410401344
    378.8664550781    160.0000000000     -7.5727896690     -7.5727896690
    358.6775207520    160.0000000000     -3.0569250584     -3.0569250584
    358.5305786133    133.3333282471     -1.0232324600     -1.0232324600
    378.8664550781    160.0000000000     -7.5727896690     -7.5727896690
    378.9924011230    186.6666717529     -6.9294600487     -6.9294600487
    358.8244628906    186.6666717529     -4.4634499550     -4.4634499550
    358.6775207520    160.0000000000     -3.0569250584     -3.0569250584
    378.9924011230    186.6666717529     -6.9294600487     -6.9294600487
    379.1183471680    213.3333282471     -5.8531622887     -5.8531622887
    358.9714050293    213.3333282471     -4.5903749466     -4.5903749466
    358.8244628906    186.6666717529     -4.4634499550     -4.4634499550
    379.1183471680    213.3333282471     -5.8531622887     -5.8531622887
    379.2442932129    240.0000000000     -5.0623998642     -5.0623998642
    359.1183471680    240.0000000000     -3.7039349079     -3.7039349079
    358.9714050293    213.3333282471     -4.5903749466     -4.5903749466
    379.2442932129    240.0000000000     -5.0623998642     -5.0623998642
    379.3702392578    266.6666564941     -4.9714951515     -4.9714951515
    359.2652893066    266.6666564941     -2.7476248741     -2.7476248741
    359.1183471680    240.0000000000     -3.7039349079     -3.7039349079
    379.3702392578    266.6666564941     -4.9714951515     -4.9714951515
    379.4961853027    293.3333435059     -5.3750624657     -5.3750624657
    359.4122314453    293.3333435059     -2.4634799957     -2.4634799957
    359.2652893066    266.6666564941     -2.7476248741     -2.7476248741
    379.4961853027    293.3333435059     -5.3750624657     -5.3750624657
    379.6221618652    320.0000000000     -5.7380552292     -5.7380552292
    359.5591735840    320.0000000000     -2.7615125179     -2.7615125179
    359.4122314453    293.3333435059     -2.4634799957     -2.4634799957