 VARIABLES= "X","Y","Z","yita"  
ZONE N=                                        3000 E=                              750 F=FEPOINT, ET=QUADRILATERAL
    500.0000000000      0.0000000000     -6.9211120605     -6.9211120605
    500.0000000000     26.6666698456     -6.9211120605     -6.9211120605
    479.7061157227     26.6666698456     -6.9211120605     -6.9211120605
    479.6851196289      0.0000000000     -6.9211120605     -6.9211120605
    500.0000000000     26.6666698456     -6.9211120605     -6.9211120605
    500.0000000000     53.3333282471     -6.9206171036     -6.9206171036
    479.7271118164     53.3333282471     -6.9206171036     -6.9206171036
    479.7061157227     26.6666698456     -6.9211120605     -6.9211120605
    500.0000000000     53.3333282471     -6.9206171036     -6.9206171036
    500.0000000000     80.0000000000     -6.9179673195     -6.9179673195
    479.7481079102     80.0000000000     -6.9179673195     -6.9179673195
    479.7271118164     53.3333282471     -6.9206171036     -6.9206171036
    500.0000000000     80.0000000000     -6.9179673195     -6.9179673195
    500.0000000000    106.6666717529     -6.9169797897     -6.9169797897
    479.7691040039    106.6666717529     -6.9169797897     -6.9169797897
    479.7481079102     80.0000000000     -6.9179673195     -6.9179673195
    500.0000000000    106.6666717529     -6.9169797897     -6.9169797897
    500.0000000000    133.3333282471     -6.9190826416     -6.9190826416
    479.7900695801    133.3333282471     -6.9190826416     -6.9190826416
    479.7691040039    106.6666717529     -6.9169797897     -6.9169797897
    500.0000000000    133.3333282471     -6.9190826416     -6.9190826416
    500.0000000000    160.0000000000     -6.9071121216     -6.9071121216
    479.8110656738    160.0000000000     -6.9071121216     -6.9071121216
    479.7900695801    133.3333282471     -6.9190826416     -6.9190826416
    500.0000000000    160.0000000000     -6.9071121216     -6.9071121216
    500.0000000000    186.6666717529     -6.8948578835     -6.8948578835
    479.8320617676    186.6666717529     -6.8948578835     -6.8948578835
    479.8110656738    160.0000000000     -6.9071121216     -6.9071121216
    500.0000000000    186.6666717529     -6.8948578835     -6.8948578835
    500.0000000000    213.3333282471     -6.8957624435     -6.8957624435
    479.8530578613    213.3333282471     -6.8957624435     -6.8957624435
    479.8320617676    186.6666717529     -6.8948578835     -6.8948578835
    500.0000000000    213.3333282471     -6.8957624435     -6.8957624435
    500.0000000000    240.0000000000     -6.8862128258     -6.8862128258
    479.8740539551    240.0000000000     -6.8862128258     -6.8862128258
    479.8530578613    213.3333282471     -6.8957624435     -6.8957624435
    500.0000000000    240.0000000000     -6.8862128258     -6.8862128258
    500.0000000000    266.6666564941     -6.8745880127     -6.8745880127
    479.8950500488    266.6666564941     -6.8745880127     -6.8745880127
    479.8740539551    240.0000000000     -6.8862128258     -6.8862128258
    500.0000000000    266.6666564941     -6.8745880127     -6.8745880127
    500.0000000000    293.3333435059     -6.8724546432     -6.8724546432
    479.9160156250    293.3333435059     -6.8724546432     -6.8724546432
    479.8950500488    266.6666564941     -6.8745880127     -6.8745880127
    500.0000000000    293.3333435059     -6.8724546432     -6.8724546432
    500.0000000000    320.0000000000     -6.8710250854     -6.8710250854
    479.9370422363    320.0000000000     -6.8710250854     -6.8710250854
    479.9160156250    293.3333435059     -6.8724546432     -6.8724546432
    500.0000000000    320.0000000000     -6.8710250854     -6.8710250854
    500.0000000000    346.6666564941     -6.8699898720     -6.8699898720
    479.9580078125    346.6666564941     -6.8699898720     -6.8699898720
    479.9370422363    320.0000000000     -6.8710250854     -6.8710250854
    500.0000000000    346.6666564941     -6.8699898720     -6.8699898720
    500.0000000000    373.3333435059     -6.8682675362     -6.8682675362
    479.9790039062    373.3333435059     -6.8682675362     -6.8682675362
    479.9580078125    346.6666564941     -6.8699898720     -6.8699898720
    500.0000000000    373.3333435059     -6.8682675362     -6.8682675362
    500.0000000000    400.0000000000     -6.8682675362     -6.8682675362
    480.0000000000    400.0000000000     -6.8682675362     -6.8682675362
    479.9790039062    373.3333435059     -6.8682675362     -6.8682675362
    479.6851196289      0.0000000000     -6.9211120605     -6.9211120605
    479.7061157227     26.6666698456     -6.9211120605     -6.9211120605
    459.4122314453     26.6666698456     -8.5572605133     -8.5572605133
    459.3702392578      0.0000000000     -8.5572605133     -8.5572605133
    479.7061157227     26.6666698456     -6.9211120605     -6.9211120605
    479.7271118164     53.3333282471     -6.9206171036     -6.9206171036
    459.4542236328     53.3333282471     -8.5581550598     -8.5581550598
    459.4122314453     26.6666698456     -8.5572605133     -8.5572605133
    479.7271118164     53.3333282471     -6.9206171036     -6.9206171036
    479.7481079102     80.0000000000     -6.9179673195     -6.9179673195
    459.4961853027     80.0000000000     -8.5575599670     -8.5575599670
    459.4542236328     53.3333282471     -8.5581550598     -8.5581550598
    479.7481079102     80.0000000000     -6.9179673195     -6.9179673195
    479.7691040039    106.6666717529     -6.9169797897     -6.9169797897
    459.5381774902    106.6666717529     -8.5516576767     -8.5516576767
    459.4961853027     80.0000000000     -8.5575599670     -8.5575599670
    479.7691040039    106.6666717529     -6.9169797897     -6.9169797897
    479.7900695801    133.3333282471     -6.9190826416     -6.9190826416
    459.5801696777    133.3333282471     -8.5375804901     -8.5375804901
    459.5381774902    106.6666717529     -8.5516576767     -8.5516576767
    479.7900695801    133.3333282471     -6.9190826416     -6.9190826416
    479.8110656738    160.0000000000     -6.9071121216     -6.9071121216
    459.6221618652    160.0000000000     -8.5160074234     -8.5160074234
    459.5801696777    133.3333282471     -8.5375804901     -8.5375804901
    479.8110656738    160.0000000000     -6.9071121216     -6.9071121216
    479.8320617676    186.6666717529     -6.8948578835     -6.8948578835
    459.6641235352    186.6666717529     -8.4931602478     -8.4931602478
    459.6221618652    160.0000000000     -8.5160074234     -8.5160074234
    479.8320617676    186.6666717529     -6.8948578835     -6.8948578835
    479.8530578613    213.3333282471     -6.8957624435     -6.8957624435
    459.7061157227    213.3333282471     -8.4772748947     -8.4772748947
    459.6641235352    186.6666717529     -8.4931602478     -8.4931602478
    479.8530578613    213.3333282471     -6.8957624435     -6.8957624435
    479.8740539551    240.0000000000     -6.8862128258     -6.8862128258
    459.7481079102    240.0000000000     -8.4728345871     -8.4728345871
    459.7061157227    213.3333282471     -8.4772748947     -8.4772748947
    479.8740539551    240.0000000000     -6.8862128258     -6.8862128258
    479.8950500488    266.6666564941     -6.8745880127     -6.8745880127
    459.7900695801    266.6666564941     -8.4788303375     -8.4788303375
    459.7481079102    240.0000000000     -8.4728345871     -8.4728345871
    479.8950500488    266.6666564941     -6.8745880127     -6.8745880127
    479.9160156250    293.3333435059     -6.8724546432     -6.8724546432
    459.8320617676    293.3333435059     -8.4889068604     -8.4889068604
    459.7900695801    266.6666564941     -8.4788303375     -8.4788303375
    479.9160156250    293.3333435059     -6.8724546432     -6.8724546432
    479.9370422363    320.0000000000     -6.8710250854     -6.8710250854
    459.8740539551    320.0000000000     -8.4949951172     -8.4949951172
    459.8320617676    293.3333435059     -8.4889068604     -8.4889068604
    479.9370422363    320.0000000000     -6.8710250854     -6.8710250854
    479.9580078125    346.6666564941     -6.8699898720     -6.8699898720
    459.9160156250    346.6666564941     -8.4938049316     -8.4938049316
    459.8740539551    320.0000000000     -8.4949951172     -8.4949951172
    479.9580078125    346.6666564941     -6.8699898720     -6.8699898720
    479.9790039062    373.3333435059     -6.8682675362     -6.8682675362
    459.9580078125    373.3333435059     -8.4879751205     -8.4879751205
    459.9160156250    346.6666564941     -8.4938049316     -8.4938049316
    479.9790039062    373.3333435059     -6.8682675362     -6.8682675362
    480.0000000000    400.0000000000     -6.8682675362     -6.8682675362
    460.0000000000    400.0000000000     -8.4879751205     -8.4879751205
    459.9580078125    373.3333435059     -8.4879751205     -8.4879751205
    459.3702392578      0.0000000000     -8.5572605133     -8.5572605133
    459.4122314453     26.6666698456     -8.5572605133     -8.5572605133
    439.1183471680     26.6666698456     -9.0601024628     -9.0601024628
    439.0553588867      0.0000000000     -9.0601024628     -9.0601024628
    459.4122314453     26.6666698456     -8.5572605133     -8.5572605133
    459.4542236328     53.3333282471     -8.5581550598     -8.5581550598
    439.1813049316     53.3333282471     -9.0587949753     -9.0587949753
    439.1183471680     26.6666698456     -9.0601024628     -9.0601024628
    459.4542236328     53.3333282471     -8.5581550598     -8.5581550598
    459.4961853027     80.0000000000     -8.5575599670     -8.5575599670
    439.2442932129     80.0000000000     -9.0665359497     -9.0665359497
    439.1813049316     53.3333282471     -9.0587949753     -9.0587949753
    459.4961853027     80.0000000000     -8.5575599670     -8.5575599670
    459.5381774902    106.6666717529     -8.5516576767     -8.5516576767
    439.3072814941    106.6666717529     -9.0930147171     -9.0930147171
    439.2442932129     80.0000000000     -9.0665359497     -9.0665359497
    459.5381774902    106.6666717529     -8.5516576767     -8.5516576767
    459.5801696777    133.3333282471     -8.5375804901     -8.5375804901
    439.3702392578    133.3333282471     -9.1425876617     -9.1425876617
    439.3072814941    106.6666717529     -9.0930147171     -9.0930147171
    459.5801696777    133.3333282471     -8.5375804901     -8.5375804901
    459.6221618652    160.0000000000     -8.5160074234     -8.5160074234
    439.4332275391    160.0000000000     -9.2068023682     -9.2068023682
    439.3702392578    133.3333282471     -9.1425876617     -9.1425876617
    459.6221618652    160.0000000000     -8.5160074234     -8.5160074234
    459.6641235352    186.6666717529     -8.4931602478     -8.4931602478
    439.4961853027    186.6666717529     -9.2630271912     -9.2630271912
    439.4332275391    160.0000000000     -9.2068023682     -9.2068023682
    459.6641235352    186.6666717529     -8.4931602478     -8.4931602478
    459.7061157227    213.3333282471     -8.4772748947     -8.4772748947
    439.5591735840    213.3333282471     -9.2856178284     -9.2856178284
    439.4961853027    186.6666717529     -9.2630271912     -9.2630271912
    459.7061157227    213.3333282471     -8.4772748947     -8.4772748947
    459.7481079102    240.0000000000     -8.4728345871     -8.4728345871
    439.6221618652    240.0000000000     -9.2648448944     -9.2648448944
    439.5591735840    213.3333282471     -9.2856178284     -9.2856178284
    459.7481079102    240.0000000000     -8.4728345871     -8.4728345871
    459.7900695801    266.6666564941     -8.4788303375     -8.4788303375
    439.6851196289    266.6666564941     -9.2170877457     -9.2170877457
    439.6221618652    240.0000000000     -9.2648448944     -9.2648448944
    459.7900695801    266.6666564941     -8.4788303375     -8.4788303375
    459.8320617676    293.3333435059     -8.4889068604     -8.4889068604
    439.7481079102    293.3333435059     -9.1750173569     -9.1750173569
    439.6851196289    266.6666564941     -9.2170877457     -9.2170877457
    459.8320617676    293.3333435059     -8.4889068604     -8.4889068604
    459.8740539551    320.0000000000     -8.4949951172     -8.4949951172
    439.8110656738    320.0000000000     -9.1643171310     -9.1643171310
    439.7481079102    293.3333435059     -9.1750173569     -9.1750173569
    459.8740539551    320.0000000000     -8.4949951172     -8.4949951172
    459.9160156250    346.6666564941     -8.4938049316     -8.4938049316
    439.8740539551    346.6666564941     -9.1851453781     -9.1851453781
    439.8110656738    320.0000000000     -9.1643171310     -9.1643171310
    459.9160156250    346.6666564941     -8.4938049316     -8.4938049316
    459.9580078125    373.3333435059     -8.4879751205     -8.4879751205
    439.9370422363    373.3333435059     -9.2112483978     -9.2112483978
    439.8740539551    346.6666564941     -9.1851453781     -9.1851453781
    459.9580078125    373.3333435059     -8.4879751205     -8.4879751205
    460.0000000000    400.0000000000     -8.4879751205     -8.4879751205
    440.0000000000    400.0000000000     -9.2112483978     -9.2112483978
    439.9370422363    373.3333435059     -9.2112483978     -9.2112483978
    439.0553588867      0.0000000000     -9.0601024628     -9.0601024628
    439.1183471680     26.6666698456     -9.0601024628     -9.0601024628
    418.8244628906     26.6666698456    -10.7611694336    -10.7611694336
    418.7405090332      0.0000000000    -10.7611694336    -10.7611694336
    439.1183471680     26.6666698456     -9.0601024628     -9.0601024628
    439.1813049316     53.3333282471     -9.0587949753     -9.0587949753
    418.9084167480     53.3333282471    -10.8559246063    -10.8559246063
    418.8244628906     26.6666698456    -10.7611694336    -10.7611694336
    439.1813049316     53.3333282471     -9.0587949753     -9.0587949753
    439.2442932129     80.0000000000     -9.0665359497     -9.0665359497
    418.9924011230     80.0000000000    -10.8692893982    -10.8692893982
    418.9084167480     53.3333282471    -10.8559246063    -10.8559246063
    439.2442932129     80.0000000000     -9.0665359497     -9.0665359497
    439.3072814941    106.6666717529     -9.0930147171     -9.0930147171
    419.0763549805    106.6666717529    -10.6434297562    -10.6434297562
    418.9924011230     80.0000000000    -10.8692893982    -10.8692893982
    439.3072814941    106.6666717529     -9.0930147171     -9.0930147171
    439.3702392578    133.3333282471     -9.1425876617     -9.1425876617
    419.1603393555    133.3333282471    -10.0773372650    -10.0773372650
    419.0763549805    106.6666717529    -10.6434297562    -10.6434297562
    439.3702392578    133.3333282471     -9.1425876617     -9.1425876617
    439.4332275391    160.0000000000     -9.2068023682     -9.2068023682
    419.2442932129    160.0000000000     -9.2356901169     -9.2356901169
    419.1603393555    133.3333282471    -10.0773372650    -10.0773372650
    439.4332275391    160.0000000000     -9.2068023682     -9.2068023682
    439.4961853027    186.6666717529     -9.2630271912     -9.2630271912
    419.3282775879    186.6666717529     -8.3927049637     -8.3927049637
    419.2442932129    160.0000000000     -9.2356901169     -9.2356901169
    439.4961853027    186.6666717529     -9.2630271912     -9.2630271912
    439.5591735840    213.3333282471     -9.2856178284     -9.2856178284
    419.4122314453    213.3333282471     -7.9101152420     -7.9101152420
    419.3282775879    186.6666717529     -8.3927049637     -8.3927049637
    439.5591735840    213.3333282471     -9.2856178284     -9.2856178284
    439.6221618652    240.0000000000     -9.2648448944     -9.2648448944
    419.4961853027    240.0000000000     -7.9913001060     -7.9913001060
    419.4122314453    213.3333282471     -7.9101152420     -7.9101152420
    439.6221618652    240.0000000000     -9.2648448944     -9.2648448944
    439.6851196289    266.6666564941     -9.2170877457     -9.2170877457
    419.5801696777    266.6666564941     -8.5128898621     -8.5128898621
    419.4961853027    240.0000000000     -7.9913001060     -7.9913001060
    439.6851196289    266.6666564941     -9.2170877457     -9.2170877457
    439.7481079102    293.3333435059     -9.1750173569     -9.1750173569
    419.6641235352    293.3333435059     -9.0920925140     -9.0920925140
    419.5801696777    266.6666564941     -8.5128898621     -8.5128898621
    439.7481079102    293.3333435059     -9.1750173569     -9.1750173569
    439.8110656738    320.0000000000     -9.1643171310     -9.1643171310
    419.7481079102    320.0000000000     -9.3587646484     -9.3587646484
    419.6641235352    293.3333435059     -9.0920925140     -9.0920925140
    439.8110656738    320.0000000000     -9.1643171310     -9.1643171310
    439.8740539551    346.6666564941     -9.1851453781     -9.1851453781
    419.8320617676    346.6666564941     -9.2283325195     -9.2283325195
    419.7481079102    320.0000000000     -9.3587646484     -9.3587646484
    439.8740539551    346.6666564941     -9.1851453781     -9.1851453781
    439.9370422363    373.3333435059     -9.2112483978     -9.2112483978
    419.9160156250    373.3333435059     -8.9425973892     -8.9425973892
    419.8320617676    346.6666564941     -9.2283325195     -9.2283325195
    439.9370422363    373.3333435059     -9.2112483978     -9.2112483978
    440.0000000000    400.0000000000     -9.2112483978     -9.2112483978
    420.0000000000    400.0000000000     -8.9425973892     -8.9425973892
    419.9160156250    373.3333435059     -8.9425973892     -8.9425973892
    418.7405090332      0.0000000000    -10.7611694336    -10.7611694336
    418.8244628906     26.6666698456    -10.7611694336    -10.7611694336
    398.5305786133     26.6666698456    -10.4079294205    -10.4079294205
    398.4256286621      0.0000000000    -10.4079294205    -10.4079294205
    418.8244628906     26.6666698456    -10.7611694336    -10.7611694336
    418.9084167480     53.3333282471    -10.8559246063    -10.8559246063
    398.6355285645     53.3333282471    -11.1558694839    -11.1558694839
    398.5305786133     26.6666698456    -10.4079294205    -10.4079294205
    418.9084167480     53.3333282471    -10.8559246063    -10.8559246063
    418.9924011230     80.0000000000    -10.8692893982    -10.8692893982
    398.7405090332     80.0000000000    -12.0478849411    -12.0478849411
    398.6355285645     53.3333282471    -11.1558694839    -11.1558694839
    418.9924011230     80.0000000000    -10.8692893982    -10.8692893982
    419.0763549805    106.6666717529    -10.6434297562    -10.6434297562
    398.8454589844    106.6666717529    -12.5826873779    -12.5826873779
    398.7405090332     80.0000000000    -12.0478849411    -12.0478849411
    419.0763549805    106.6666717529    -10.6434297562    -10.6434297562
    419.1603393555    133.3333282471    -10.0773372650    -10.0773372650
    398.9504089355    133.3333282471    -12.2006349564    -12.2006349564
    398.8454589844    106.6666717529    -12.5826873779    -12.5826873779
    419.1603393555    133.3333282471    -10.0773372650    -10.0773372650
    419.2442932129    160.0000000000     -9.2356901169     -9.2356901169
    399.0553588867    160.0000000000    -10.6100473404    -10.6100473404
    398.9504089355    133.3333282471    -12.2006349564    -12.2006349564
    419.2442932129    160.0000000000     -9.2356901169     -9.2356901169
    419.3282775879    186.6666717529     -8.3927049637     -8.3927049637
    399.1603393555    186.6666717529     -8.1563949585     -8.1563949585
    399.0553588867    160.0000000000    -10.6100473404    -10.6100473404
    419.3282775879    186.6666717529     -8.3927049637     -8.3927049637
    419.4122314453    213.3333282471     -7.9101152420     -7.9101152420
    399.2652893066    213.3333282471     -5.8529825211     -5.8529825211
    399.1603393555    186.6666717529     -8.1563949585     -8.1563949585
    419.4122314453    213.3333282471     -7.9101152420     -7.9101152420
    419.4961853027    240.0000000000     -7.9913001060     -7.9913001060
    399.3702392578    240.0000000000     -4.8250026703     -4.8250026703
    399.2652893066    213.3333282471     -5.8529825211     -5.8529825211
    419.4961853027    240.0000000000     -7.9913001060     -7.9913001060
    419.5801696777    266.6666564941     -8.5128898621     -8.5128898621
    399.4752197266    266.6666564941     -5.4881229401     -5.4881229401
    399.3702392578    240.0000000000     -4.8250026703     -4.8250026703
    419.5801696777    266.6666564941     -8.5128898621     -8.5128898621
    419.6641235352    293.3333435059     -9.0920925140     -9.0920925140
    399.5801696777    293.3333435059     -7.1574249268     -7.1574249268
    399.4752197266    266.6666564941     -5.4881229401     -5.4881229401
    419.6641235352    293.3333435059     -9.0920925140     -9.0920925140
    419.7481079102    320.0000000000     -9.3587646484     -9.3587646484
    399.6851196289    320.0000000000     -8.5297985077     -8.5297985077
    399.5801696777    293.3333435059     -7.1574249268     -7.1574249268
    419.7481079102    320.0000000000     -9.3587646484     -9.3587646484
    419.8320617676    346.6666564941     -9.2283325195     -9.2283325195
    399.7900695801    346.6666564941     -8.7767543793     -8.7767543793
    399.6851196289    320.0000000000     -8.5297985077     -8.5297985077
    419.8320617676    346.6666564941     -9.2283325195     -9.2283325195
    419.9160156250    373.3333435059     -8.9425973892     -8.9425973892
    399.8950500488    373.3333435059     -8.2206249237     -8.2206249237
    399.7900695801    346.6666564941     -8.7767543793     -8.7767543793
    419.9160156250    373.3333435059     -8.9425973892     -8.9425973892
    420.0000000000    400.0000000000     -8.9425973892     -8.9425973892
    400.0000000000    400.0000000000     -8.2206249237     -8.2206249237
    399.8950500488    373.3333435059     -8.2206249237     -8.2206249237
    398.4256286621      0.0000000000    -10.4079294205    -10.4079294205
    398.5305786133     26.6666698456    -10.4079294205    -10.4079294205
    378.2366943359     26.6666698456     -1.9528377056     -1.9528377056
    378.1107482910      0.0000000000     -1.9528377056     -1.9528377056
    398.5305786133     26.6666698456    -10.4079294205    -10.4079294205
    398.6355285645     53.3333282471    -11.1558694839    -11.1558694839
    378.3626403809     53.3333282471     -2.8787174225     -2.8787174225
    378.2366943359     26.6666698456     -1.9528377056     -1.9528377056
    398.6355285645     53.3333282471    -11.1558694839    -11.1558694839
    398.7405090332     80.0000000000    -12.0478849411    -12.0478849411
    378.4885864258     80.0000000000     -4.5311455727     -4.5311455727
    378.3626403809     53.3333282471     -2.8787174225     -2.8787174225
    398.7405090332     80.0000000000    -12.0478849411    -12.0478849411
    398.8454589844    106.6666717529    -12.5826873779    -12.5826873779
    378.6145629883    106.6666717529     -6.7904224396     -6.7904224396
    378.4885864258     80.0000000000     -4.5311455727     -4.5311455727
    398.8454589844    106.6666717529    -12.5826873779    -12.5826873779
    398.9504089355    133.3333282471    -12.2006349564    -12.2006349564
    378.7405090332    133.3333282471     -9.0746870041     -9.0746870041
    378.6145629883    106.6666717529     -6.7904224396     -6.7904224396
    398.9504089355    133.3333282471    -12.2006349564    -12.2006349564
    399.0553588867    160.0000000000    -10.6100473404    -10.6100473404
    378.8664550781    160.0000000000    -10.3803272247    -10.3803272247
    378.7405090332    133.3333282471     -9.0746870041     -9.0746870041
    399.0553588867    160.0000000000    -10.6100473404    -10.6100473404
    399.1603393555    186.6666717529     -8.1563949585     -8.1563949585
    378.9924011230    186.6666717529     -9.8062782288     -9.8062782288
    378.8664550781    160.0000000000    -10.3803272247    -10.3803272247
    399.1603393555    186.6666717529     -8.1563949585     -8.1563949585
    399.2652893066    213.3333282471     -5.8529825211     -5.8529825211
    379.1183471680    213.3333282471     -7.3734626770     -7.3734626770
    378.9924011230    186.6666717529     -9.8062782288     -9.8062782288
    399.2652893066    213.3333282471     -5.8529825211     -5.8529825211
    399.3702392578    240.0000000000     -4.8250026703     -4.8250026703
    379.2442932129    240.0000000000     -4.3742046356     -4.3742046356
    379.1183471680    213.3333282471     -7.3734626770     -7.3734626770
    399.3702392578    240.0000000000     -4.8250026703     -4.8250026703
    399.4752197266    266.6666564941     -5.4881229401     -5.4881229401
    379.3702392578    266.6666564941     -2.6057801247     -2.6057801247
    379.2442932129    240.0000000000     -4.3742046356     -4.3742046356
    399.4752197266    266.6666564941     -5.4881229401     -5.4881229401
    399.5801696777    293.3333435059     -7.1574249268     -7.1574249268
    379.4961853027    293.3333435059     -2.9721925259     -2.9721925259
    379.3702392578    266.6666564941     -2.6057801247     -2.6057801247
    399.5801696777    293.3333435059     -7.1574249268     -7.1574249268
    399.6851196289    320.0000000000     -8.5297985077     -8.5297985077
    379.6221618652    320.0000000000     -4.7766847610     -4.7766847610
    379.4961853027    293.3333435059     -2.9721925259     -2.9721925259
    399.6851196289    320.0000000000     -8.5297985077     -8.5297985077
    399.7900695801    346.6666564941     -8.7767543793     -8.7767543793
    379.7481079102    346.6666564941     -6.5023169518     -6.5023169518
    379.6221618652    320.0000000000     -4.7766847610     -4.7766847610
    399.7900695801    346.6666564941     -8.7767543793     -8.7767543793
    399.8950500488    373.3333435059     -8.2206249237     -8.2206249237
    379.8740539551    373.3333435059     -7.1827020645     -7.1827020645
    379.7481079102    346.6666564941     -6.5023169518     -6.5023169518
    399.8950500488    373.3333435059     -8.2206249237     -8.2206249237
    400.0000000000    400.0000000000     -8.2206249237     -8.2206249237
    380.0000000000    400.0000000000     -7.1827020645     -7.1827020645
    379.8740539551    373.3333435059     -7.1827020645     -7.1827020645
    378.1107482910      0.0000000000     -1.9528377056     -1.9528377056
    378.2366943359     26.6666698456     -1.9528377056     -1.9528377056
    357.9428100586     26.6666698456      2.6749577522      2.6749577522
    357.7958679199      0.0000000000      2.6749577522      2.6749577522
    378.2366943359     26.6666698456     -1.9528377056     -1.9528377056
    378.3626403809     53.3333282471     -2.8787174225     -2.8787174225
    358.0897521973     53.3333282471      3.4383552074      3.4383552074
    357.9428100586     26.6666698456      2.6749577522      2.6749577522
    378.3626403809     53.3333282471     -2.8787174225     -2.8787174225
    378.4885864258     80.0000000000     -4.5311455727     -4.5311455727
    358.2366943359     80.0000000000      3.9697074890      3.9697074890
    358.0897521973     53.3333282471      3.4383552074      3.4383552074
    378.4885864258     80.0000000000     -4.5311455727     -4.5311455727
    378.6145629883    106.6666717529     -6.7904224396     -6.7904224396
    358.3836364746    106.6666717529      3.3915550709      3.3915550709
    358.2366943359     80.0000000000      3.9697074890      3.9697074890
    378.6145629883    106.6666717529     -6.7904224396     -6.7904224396
    378.7405090332    133.3333282471     -9.0746870041     -9.0746870041
    358.5305786133    133.3333282471      1.0846076012      1.0846076012
    358.3836364746    106.6666717529      3.3915550709      3.3915550709
    378.7405090332    133.3333282471     -9.0746870041     -9.0746870041
    378.8664550781    160.0000000000    -10.3803272247    -10.3803272247
    358.6775207520    160.0000000000     -2.6532075405     -2.6532075405
    358.5305786133    133.3333282471      1.0846076012      1.0846076012
    378.8664550781    160.0000000000    -10.3803272247    -10.3803272247
    378.9924011230    186.6666717529     -9.8062782288     -9.8062782288
    358.8244628906    186.6666717529     -6.3152875900     -6.3152875900
    358.6775207520    160.0000000000     -2.6532075405     -2.6532075405
    378.9924011230    186.6666717529     -9.8062782288     -9.8062782288
    379.1183471680    213.3333282471     -7.3734626770     -7.3734626770
    358.9714050293    213.3333282471     -7.8941850662     -7.8941850662
    358.8244628906    186.6666717529     -6.3152875900     -6.3152875900
    379.1183471680    213.3333282471     -7.3734626770     -7.3734626770
    379.2442932129    240.0000000000     -4.3742046356     -4.3742046356
    359.1183471680    240.0000000000     -6.4372820854     -6.4372820854
    358.9714050293    213.3333282471     -7.8941850662     -7.8941850662
    379.2442932129    240.0000000000     -4.3742046356     -4.3742046356
    379.3702392578    266.6666564941     -2.6057801247     -2.6057801247
    359.2652893066    266.6666564941     -3.0635700226     -3.0635700226
    359.1183471680    240.0000000000     -6.4372820854     -6.4372820854
    379.3702392578    266.6666564941     -2.6057801247     -2.6057801247
    379.4961853027    293.3333435059     -2.9721925259     -2.9721925259
    359.4122314453    293.3333435059     -0.2691600323     -0.2691600323
    359.2652893066    266.6666564941     -3.0635700226     -3.0635700226
    379.4961853027    293.3333435059     -2.9721925259     -2.9721925259
    379.6221618652    320.0000000000     -4.7766847610     -4.7766847610
    359.5591735840    320.0000000000      0.0068849921      0.0068849921
    359.4122314453    293.3333435059     -0.2691600323     -0.2691600323