 VARIABLES= "X","Y","Z","yita"  
ZONE N=                                        3000 E=                              750 F=FEPOINT, ET=QUADRILATERAL
    500.0000000000      0.0000000000      5.3943023682      5.3943023682
    500.0000000000     26.6666698456      5.3943023682      5.3943023682
    479.7061157227     26.6666698456      5.3943023682      5.3943023682
    479.6851196289      0.0000000000      5.3943023682      5.3943023682
    500.0000000000     26.6666698456      5.3943023682      5.3943023682
    500.0000000000     53.3333282471      5.3980498314      5.3980498314
    479.7271118164     53.3333282471      5.3980498314      5.3980498314
    479.7061157227     26.6666698456      5.3943023682      5.3943023682
    500.0000000000     53.3333282471      5.3980498314      5.3980498314
    500.0000000000     80.0000000000      5.3851251602      5.3851251602
    479.7481079102     80.0000000000      5.3851251602      5.3851251602
    479.7271118164     53.3333282471      5.3980498314      5.3980498314
    500.0000000000     80.0000000000      5.3851251602      5.3851251602
    500.0000000000    106.6666717529      5.3724427223      5.3724427223
    479.7691040039    106.6666717529      5.3724427223      5.3724427223
    479.7481079102     80.0000000000      5.3851251602      5.3851251602
    500.0000000000    106.6666717529      5.3724427223      5.3724427223
    500.0000000000    133.3333282471      5.3759698868      5.3759698868
    479.7900695801    133.3333282471      5.3759698868      5.3759698868
    479.7691040039    106.6666717529      5.3724427223      5.3724427223
    500.0000000000    133.3333282471      5.3759698868      5.3759698868
    500.0000000000    160.0000000000      5.3694972992      5.3694972992
    479.8110656738    160.0000000000      5.3694972992      5.3694972992
    479.7900695801    133.3333282471      5.3759698868      5.3759698868
    500.0000000000    160.0000000000      5.3694972992      5.3694972992
    500.0000000000    186.6666717529      5.3603324890      5.3603324890
    479.8320617676    186.6666717529      5.3603324890      5.3603324890
    479.8110656738    160.0000000000      5.3694972992      5.3694972992
    500.0000000000    186.6666717529      5.3603324890      5.3603324890
    500.0000000000    213.3333282471      5.3608303070      5.3608303070
    479.8530578613    213.3333282471      5.3608303070      5.3608303070
    479.8320617676    186.6666717529      5.3603324890      5.3603324890
    500.0000000000    213.3333282471      5.3608303070      5.3608303070
    500.0000000000    240.0000000000      5.3729376793      5.3729376793
    479.8740539551    240.0000000000      5.3729376793      5.3729376793
    479.8530578613    213.3333282471      5.3608303070      5.3608303070
    500.0000000000    240.0000000000      5.3729376793      5.3729376793
    500.0000000000    266.6666564941      5.3857097626      5.3857097626
    479.8950500488    266.6666564941      5.3857097626      5.3857097626
    479.8740539551    240.0000000000      5.3729376793      5.3729376793
    500.0000000000    266.6666564941      5.3857097626      5.3857097626
    500.0000000000    293.3333435059      5.3883376122      5.3883376122
    479.9160156250    293.3333435059      5.3883376122      5.3883376122
    479.8950500488    266.6666564941      5.3857097626      5.3857097626
    500.0000000000    293.3333435059      5.3883376122      5.3883376122
    500.0000000000    320.0000000000      5.3956828117      5.3956828117
    479.9370422363    320.0000000000      5.3956828117      5.3956828117
    479.9160156250    293.3333435059      5.3883376122      5.3883376122
    500.0000000000    320.0000000000      5.3956828117      5.3956828117
    500.0000000000    346.6666564941      5.4048399925      5.4048399925
    479.9580078125    346.6666564941      5.4048399925      5.4048399925
    479.9370422363    320.0000000000      5.3956828117      5.3956828117
    500.0000000000    346.6666564941      5.4048399925      5.4048399925
    500.0000000000    373.3333435059      5.4081850052      5.4081850052
    479.9790039062    373.3333435059      5.4081850052      5.4081850052
    479.9580078125    346.6666564941      5.4048399925      5.4048399925
    500.0000000000    373.3333435059      5.4081850052      5.4081850052
    500.0000000000    400.0000000000      5.4081850052      5.4081850052
    480.0000000000    400.0000000000      5.4081850052      5.4081850052
    479.9790039062    373.3333435059      5.4081850052      5.4081850052
    479.6851196289      0.0000000000      5.3943023682      5.3943023682
    479.7061157227     26.6666698456      5.3943023682      5.3943023682
    459.4122314453     26.6666698456      2.6785676479      2.6785676479
    459.3702392578      0.0000000000      2.6785676479      2.6785676479
    479.7061157227     26.6666698456      5.3943023682      5.3943023682
    479.7271118164     53.3333282471      5.3980498314      5.3980498314
    459.4542236328     53.3333282471      2.6731173992      2.6731173992
    459.4122314453     26.6666698456      2.6785676479      2.6785676479
    479.7271118164     53.3333282471      5.3980498314      5.3980498314
    479.7481079102     80.0000000000      5.3851251602      5.3851251602
    459.4961853027     80.0000000000      2.6603901386      2.6603901386
    459.4542236328     53.3333282471      2.6731173992      2.6731173992
    479.7481079102     80.0000000000      5.3851251602      5.3851251602
    479.7691040039    106.6666717529      5.3724427223      5.3724427223
    459.5381774902    106.6666717529      2.6442499161      2.6442499161
    459.4961853027     80.0000000000      2.6603901386      2.6603901386
    479.7691040039    106.6666717529      5.3724427223      5.3724427223
    479.7900695801    133.3333282471      5.3759698868      5.3759698868
    459.5801696777    133.3333282471      2.6308448315      2.6308448315
    459.5381774902    106.6666717529      2.6442499161      2.6442499161
    479.7900695801    133.3333282471      5.3759698868      5.3759698868
    479.8110656738    160.0000000000      5.3694972992      5.3694972992
    459.6221618652    160.0000000000      2.6260924339      2.6260924339
    459.5801696777    133.3333282471      2.6308448315      2.6308448315
    479.8110656738    160.0000000000      5.3694972992      5.3694972992
    479.8320617676    186.6666717529      5.3603324890      5.3603324890
    459.6641235352    186.6666717529      2.6353273392      2.6353273392
    459.6221618652    160.0000000000      2.6260924339      2.6260924339
    479.8320617676    186.6666717529      5.3603324890      5.3603324890
    479.8530578613    213.3333282471      5.3608303070      5.3608303070
    459.7061157227    213.3333282471      2.6598501205      2.6598501205
    459.6641235352    186.6666717529      2.6353273392      2.6353273392
    479.8530578613    213.3333282471      5.3608303070      5.3608303070
    479.8740539551    240.0000000000      5.3729376793      5.3729376793
    459.7481079102    240.0000000000      2.6935501099      2.6935501099
    459.7061157227    213.3333282471      2.6598501205      2.6598501205
    479.8740539551    240.0000000000      5.3729376793      5.3729376793
    479.8950500488    266.6666564941      5.3857097626      5.3857097626
    459.7900695801    266.6666564941      2.7243099213      2.7243099213
    459.7481079102    240.0000000000      2.6935501099      2.6935501099
    479.8950500488    266.6666564941      5.3857097626      5.3857097626
    479.9160156250    293.3333435059      5.3883376122      5.3883376122
    459.8320617676    293.3333435059      2.7398598194      2.7398598194
    459.7900695801    266.6666564941      2.7243099213      2.7243099213
    479.9160156250    293.3333435059      5.3883376122      5.3883376122
    479.9370422363    320.0000000000      5.3956828117      5.3956828117
    459.8740539551    320.0000000000      2.7360448837      2.7360448837
    459.8320617676    293.3333435059      2.7398598194      2.7398598194
    479.9370422363    320.0000000000      5.3956828117      5.3956828117
    479.9580078125    346.6666564941      5.4048399925      5.4048399925
    459.9160156250    346.6666564941      2.7208399773      2.7208399773
    459.8740539551    320.0000000000      2.7360448837      2.7360448837
    479.9580078125    346.6666564941      5.4048399925      5.4048399925
    479.9790039062    373.3333435059      5.4081850052      5.4081850052
    459.9580078125    373.3333435059      2.7074699402      2.7074699402
    459.9160156250    346.6666564941      2.7208399773      2.7208399773
    479.9790039062    373.3333435059      5.4081850052      5.4081850052
    480.0000000000    400.0000000000      5.4081850052      5.4081850052
    460.0000000000    400.0000000000      2.7074699402      2.7074699402
    459.9580078125    373.3333435059      2.7074699402      2.7074699402
    459.3702392578      0.0000000000      2.6785676479      2.6785676479
    459.4122314453     26.6666698456      2.6785676479      2.6785676479
    439.1183471680     26.6666698456     -0.3990324736     -0.3990324736
    439.0553588867      0.0000000000     -0.3990324736     -0.3990324736
    459.4122314453     26.6666698456      2.6785676479      2.6785676479
    459.4542236328     53.3333282471      2.6731173992      2.6731173992
    439.1813049316     53.3333282471     -0.3623400331     -0.3623400331
    439.1183471680     26.6666698456     -0.3990324736     -0.3990324736
    459.4542236328     53.3333282471      2.6731173992      2.6731173992
    459.4961853027     80.0000000000      2.6603901386      2.6603901386
    439.2442932129     80.0000000000     -0.3113249838     -0.3113249838
    439.1813049316     53.3333282471     -0.3623400331     -0.3623400331
    459.4961853027     80.0000000000      2.6603901386      2.6603901386
    459.5381774902    106.6666717529      2.6442499161      2.6442499161
    439.3072814941    106.6666717529     -0.2556324899     -0.2556324899
    439.2442932129     80.0000000000     -0.3113249838     -0.3113249838
    459.5381774902    106.6666717529      2.6442499161      2.6442499161
    459.5801696777    133.3333282471      2.6308448315      2.6308448315
    439.3702392578    133.3333282471     -0.2125475109     -0.2125475109
    439.3072814941    106.6666717529     -0.2556324899     -0.2556324899
    459.5801696777    133.3333282471      2.6308448315      2.6308448315
    459.6221618652    160.0000000000      2.6260924339      2.6260924339
    439.4332275391    160.0000000000     -0.2009550035     -0.2009550035
    439.3702392578    133.3333282471     -0.2125475109     -0.2125475109
    459.6221618652    160.0000000000      2.6260924339      2.6260924339
    459.6641235352    186.6666717529      2.6353273392      2.6353273392
    439.4961853027    186.6666717529     -0.2291324735     -0.2291324735
    439.4332275391    160.0000000000     -0.2009550035     -0.2009550035
    459.6641235352    186.6666717529      2.6353273392      2.6353273392
    459.7061157227    213.3333282471      2.6598501205      2.6598501205
    439.5591735840    213.3333282471     -0.2874925137     -0.2874925137
    439.4961853027    186.6666717529     -0.2291324735     -0.2291324735
    459.7061157227    213.3333282471      2.6598501205      2.6598501205
    459.7481079102    240.0000000000      2.6935501099      2.6935501099
    439.6221618652    240.0000000000     -0.3515800238     -0.3515800238
    439.5591735840    213.3333282471     -0.2874925137     -0.2874925137
    459.7481079102    240.0000000000      2.6935501099      2.6935501099
    459.7900695801    266.6666564941      2.7243099213      2.7243099213
    439.6851196289    266.6666564941     -0.3906675577     -0.3906675577
    439.6221618652    240.0000000000     -0.3515800238     -0.3515800238
    459.7900695801    266.6666564941      2.7243099213      2.7243099213
    459.8320617676    293.3333435059      2.7398598194      2.7398598194
    439.7481079102    293.3333435059     -0.3785725832     -0.3785725832
    439.6851196289    266.6666564941     -0.3906675577     -0.3906675577
    459.8320617676    293.3333435059      2.7398598194      2.7398598194
    459.8740539551    320.0000000000      2.7360448837      2.7360448837
    439.8110656738    320.0000000000     -0.3112775087     -0.3112775087
    439.7481079102    293.3333435059     -0.3785725832     -0.3785725832
    459.8740539551    320.0000000000      2.7360448837      2.7360448837
    459.9160156250    346.6666564941      2.7208399773      2.7208399773
    439.8740539551    346.6666564941     -0.2201249897     -0.2201249897
    439.8110656738    320.0000000000     -0.3112775087     -0.3112775087
    459.9160156250    346.6666564941      2.7208399773      2.7208399773
    459.9580078125    373.3333435059      2.7074699402      2.7074699402
    439.9370422363    373.3333435059     -0.1601050198     -0.1601050198
    439.8740539551    346.6666564941     -0.2201249897     -0.2201249897
    459.9580078125    373.3333435059      2.7074699402      2.7074699402
    460.0000000000    400.0000000000      2.7074699402      2.7074699402
    440.0000000000    400.0000000000     -0.1601050198     -0.1601050198
    439.9370422363    373.3333435059     -0.1601050198     -0.1601050198
    439.0553588867      0.0000000000     -0.3990324736     -0.3990324736
    439.1183471680     26.6666698456     -0.3990324736     -0.3990324736
    418.8244628906     26.6666698456     -2.4671175480     -2.4671175480
    418.7405090332      0.0000000000     -2.4671175480     -2.4671175480
    439.1183471680     26.6666698456     -0.3990324736     -0.3990324736
    439.1813049316     53.3333282471     -0.3623400331     -0.3623400331
    418.9084167480     53.3333282471     -2.8689026833     -2.8689026833
    418.8244628906     26.6666698456     -2.4671175480     -2.4671175480
    439.1813049316     53.3333282471     -0.3623400331     -0.3623400331
    439.2442932129     80.0000000000     -0.3113249838     -0.3113249838
    418.9924011230     80.0000000000     -3.5109400749     -3.5109400749
    418.9084167480     53.3333282471     -2.8689026833     -2.8689026833
    439.2442932129     80.0000000000     -0.3113249838     -0.3113249838
    439.3072814941    106.6666717529     -0.2556324899     -0.2556324899
    419.0763549805    106.6666717529     -4.2780628204     -4.2780628204
    418.9924011230     80.0000000000     -3.5109400749     -3.5109400749
    439.3072814941    106.6666717529     -0.2556324899     -0.2556324899
    439.3702392578    133.3333282471     -0.2125475109     -0.2125475109
    419.1603393555    133.3333282471     -4.9402451515     -4.9402451515
    419.0763549805    106.6666717529     -4.2780628204     -4.2780628204
    439.3702392578    133.3333282471     -0.2125475109     -0.2125475109
    439.4332275391    160.0000000000     -0.2009550035     -0.2009550035
    419.2442932129    160.0000000000     -5.2158823013     -5.2158823013
    419.1603393555    133.3333282471     -4.9402451515     -4.9402451515
    439.4332275391    160.0000000000     -0.2009550035     -0.2009550035
    439.4961853027    186.6666717529     -0.2291324735     -0.2291324735
    419.3282775879    186.6666717529     -4.9159049988     -4.9159049988
    419.2442932129    160.0000000000     -5.2158823013     -5.2158823013
    439.4961853027    186.6666717529     -0.2291324735     -0.2291324735
    439.5591735840    213.3333282471     -0.2874925137     -0.2874925137
    419.4122314453    213.3333282471     -4.0691099167     -4.0691099167
    419.3282775879    186.6666717529     -4.9159049988     -4.9159049988
    439.5591735840    213.3333282471     -0.2874925137     -0.2874925137
    439.6221618652    240.0000000000     -0.3515800238     -0.3515800238
    419.4961853027    240.0000000000     -2.9559626579     -2.9559626579
    419.4122314453    213.3333282471     -4.0691099167     -4.0691099167
    439.6221618652    240.0000000000     -0.3515800238     -0.3515800238
    439.6851196289    266.6666564941     -0.3906675577     -0.3906675577
    419.5801696777    266.6666564941     -2.0454475880     -2.0454475880
    419.4961853027    240.0000000000     -2.9559626579     -2.9559626579
    439.6851196289    266.6666564941     -0.3906675577     -0.3906675577
    439.7481079102    293.3333435059     -0.3785725832     -0.3785725832
    419.6641235352    293.3333435059     -1.8196549416     -1.8196549416
    419.5801696777    266.6666564941     -2.0454475880     -2.0454475880
    439.7481079102    293.3333435059     -0.3785725832     -0.3785725832
    439.8110656738    320.0000000000     -0.3112775087     -0.3112775087
    419.7481079102    320.0000000000     -2.4506025314     -2.4506025314
    419.6641235352    293.3333435059     -1.8196549416     -1.8196549416
    439.8110656738    320.0000000000     -0.3112775087     -0.3112775087
    439.8740539551    346.6666564941     -0.2201249897     -0.2201249897
    419.8320617676    346.6666564941     -3.5420074463     -3.5420074463
    419.7481079102    320.0000000000     -2.4506025314     -2.4506025314
    439.8740539551    346.6666564941     -0.2201249897     -0.2201249897
    439.9370422363    373.3333435059     -0.1601050198     -0.1601050198
    419.9160156250    373.3333435059     -4.3321051598     -4.3321051598
    419.8320617676    346.6666564941     -3.5420074463     -3.5420074463
    439.9370422363    373.3333435059     -0.1601050198     -0.1601050198
    440.0000000000    400.0000000000     -0.1601050198     -0.1601050198
    420.0000000000    400.0000000000     -4.3321051598     -4.3321051598
    419.9160156250    373.3333435059     -4.3321051598     -4.3321051598
    418.7405090332      0.0000000000     -2.4671175480     -2.4671175480
    418.8244628906     26.6666698456     -2.4671175480     -2.4671175480
    398.5305786133     26.6666698456     -1.0738124847     -1.0738124847
    398.4256286621      0.0000000000     -1.0738124847     -1.0738124847
    418.8244628906     26.6666698456     -2.4671175480     -2.4671175480
    418.9084167480     53.3333282471     -2.8689026833     -2.8689026833
    398.6355285645     53.3333282471     -1.8646824360     -1.8646824360
    398.5305786133     26.6666698456     -1.0738124847     -1.0738124847
    418.9084167480     53.3333282471     -2.8689026833     -2.8689026833
    418.9924011230     80.0000000000     -3.5109400749     -3.5109400749
    398.7405090332     80.0000000000     -3.3597450256     -3.3597450256
    398.6355285645     53.3333282471     -1.8646824360     -1.8646824360
    418.9924011230     80.0000000000     -3.5109400749     -3.5109400749
    419.0763549805    106.6666717529     -4.2780628204     -4.2780628204
    398.8454589844    106.6666717529     -5.5610399246     -5.5610399246
    398.7405090332     80.0000000000     -3.3597450256     -3.3597450256
    419.0763549805    106.6666717529     -4.2780628204     -4.2780628204
    419.1603393555    133.3333282471     -4.9402451515     -4.9402451515
    398.9504089355    133.3333282471     -8.1248455048     -8.1248455048
    398.8454589844    106.6666717529     -5.5610399246     -5.5610399246
    419.1603393555    133.3333282471     -4.9402451515     -4.9402451515
    419.2442932129    160.0000000000     -5.2158823013     -5.2158823013
    399.0553588867    160.0000000000    -10.3296127319    -10.3296127319
    398.9504089355    133.3333282471     -8.1248455048     -8.1248455048
    419.2442932129    160.0000000000     -5.2158823013     -5.2158823013
    419.3282775879    186.6666717529     -4.9159049988     -4.9159049988
    399.1603393555    186.6666717529    -11.2618179321    -11.2618179321
    399.0553588867    160.0000000000    -10.3296127319    -10.3296127319
    419.3282775879    186.6666717529     -4.9159049988     -4.9159049988
    419.4122314453    213.3333282471     -4.0691099167     -4.0691099167
    399.2652893066    213.3333282471    -10.1901397705    -10.1901397705
    399.1603393555    186.6666717529    -11.2618179321    -11.2618179321
    419.4122314453    213.3333282471     -4.0691099167     -4.0691099167
    419.4961853027    240.0000000000     -2.9559626579     -2.9559626579
    399.3702392578    240.0000000000     -7.1640596390     -7.1640596390
    399.2652893066    213.3333282471    -10.1901397705    -10.1901397705
    419.4961853027    240.0000000000     -2.9559626579     -2.9559626579
    419.5801696777    266.6666564941     -2.0454475880     -2.0454475880
    399.4752197266    266.6666564941     -3.5078973770     -3.5078973770
    399.3702392578    240.0000000000     -7.1640596390     -7.1640596390
    419.5801696777    266.6666564941     -2.0454475880     -2.0454475880
    419.6641235352    293.3333435059     -1.8196549416     -1.8196549416
    399.5801696777    293.3333435059     -1.4074325562     -1.4074325562
    399.4752197266    266.6666564941     -3.5078973770     -3.5078973770
    419.6641235352    293.3333435059     -1.8196549416     -1.8196549416
    419.7481079102    320.0000000000     -2.4506025314     -2.4506025314
    399.6851196289    320.0000000000     -2.3701324463     -2.3701324463
    399.5801696777    293.3333435059     -1.4074325562     -1.4074325562
    419.7481079102    320.0000000000     -2.4506025314     -2.4506025314
    419.8320617676    346.6666564941     -3.5420074463     -3.5420074463
    399.7900695801    346.6666564941     -5.7179746628     -5.7179746628
    399.6851196289    320.0000000000     -2.3701324463     -2.3701324463
    419.8320617676    346.6666564941     -3.5420074463     -3.5420074463
    419.9160156250    373.3333435059     -4.3321051598     -4.3321051598
    399.8950500488    373.3333435059     -8.8061981201     -8.8061981201
    399.7900695801    346.6666564941     -5.7179746628     -5.7179746628
    419.9160156250    373.3333435059     -4.3321051598     -4.3321051598
    420.0000000000    400.0000000000     -4.3321051598     -4.3321051598
    400.0000000000    400.0000000000     -8.8061981201     -8.8061981201
    399.8950500488    373.3333435059     -8.8061981201     -8.8061981201
    398.4256286621      0.0000000000     -1.0738124847     -1.0738124847
    398.5305786133     26.6666698456     -1.0738124847     -1.0738124847
    378.2366943359     26.6666698456     -3.0063774586     -3.0063774586
    378.1107482910      0.0000000000     -3.0063774586     -3.0063774586
    398.5305786133     26.6666698456     -1.0738124847     -1.0738124847
    398.6355285645     53.3333282471     -1.8646824360     -1.8646824360
    378.3626403809     53.3333282471     -2.4354226589     -2.4354226589
    378.2366943359     26.6666698456     -3.0063774586     -3.0063774586
    398.6355285645     53.3333282471     -1.8646824360     -1.8646824360
    398.7405090332     80.0000000000     -3.3597450256     -3.3597450256
    378.4885864258     80.0000000000     -2.0079851151     -2.0079851151
    378.3626403809     53.3333282471     -2.4354226589     -2.4354226589
    398.7405090332     80.0000000000     -3.3597450256     -3.3597450256
    398.8454589844    106.6666717529     -5.5610399246     -5.5610399246
    378.6145629883    106.6666717529     -2.3735876083     -2.3735876083
    378.4885864258     80.0000000000     -2.0079851151     -2.0079851151
    398.8454589844    106.6666717529     -5.5610399246     -5.5610399246
    398.9504089355    133.3333282471     -8.1248455048     -8.1248455048
    378.7405090332    133.3333282471     -4.1576228142     -4.1576228142
    378.6145629883    106.6666717529     -2.3735876083     -2.3735876083
    398.9504089355    133.3333282471     -8.1248455048     -8.1248455048
    399.0553588867    160.0000000000    -10.3296127319    -10.3296127319
    378.8664550781    160.0000000000     -7.4638576508     -7.4638576508
    378.7405090332    133.3333282471     -4.1576228142     -4.1576228142
    399.0553588867    160.0000000000    -10.3296127319    -10.3296127319
    399.1603393555    186.6666717529    -11.2618179321    -11.2618179321
    378.9924011230    186.6666717529    -11.3021621704    -11.3021621704
    378.8664550781    160.0000000000     -7.4638576508     -7.4638576508
    399.1603393555    186.6666717529    -11.2618179321    -11.2618179321
    399.2652893066    213.3333282471    -10.1901397705    -10.1901397705
    379.1183471680    213.3333282471    -13.6749753952    -13.6749753952
    378.9924011230    186.6666717529    -11.3021621704    -11.3021621704
    399.2652893066    213.3333282471    -10.1901397705    -10.1901397705
    399.3702392578    240.0000000000     -7.1640596390     -7.1640596390
    379.2442932129    240.0000000000    -12.9203624725    -12.9203624725
    379.1183471680    213.3333282471    -13.6749753952    -13.6749753952
    399.3702392578    240.0000000000     -7.1640596390     -7.1640596390
    399.4752197266    266.6666564941     -3.5078973770     -3.5078973770
    379.3702392578    266.6666564941     -9.3846673965     -9.3846673965
    379.2442932129    240.0000000000    -12.9203624725    -12.9203624725
    399.4752197266    266.6666564941     -3.5078973770     -3.5078973770
    399.5801696777    293.3333435059     -1.4074325562     -1.4074325562
    379.4961853027    293.3333435059     -5.4684896469     -5.4684896469
    379.3702392578    266.6666564941     -9.3846673965     -9.3846673965
    399.5801696777    293.3333435059     -1.4074325562     -1.4074325562
    399.6851196289    320.0000000000     -2.3701324463     -2.3701324463
    379.6221618652    320.0000000000     -3.7982449532     -3.7982449532
    379.4961853027    293.3333435059     -5.4684896469     -5.4684896469
    399.6851196289    320.0000000000     -2.3701324463     -2.3701324463
    399.7900695801    346.6666564941     -5.7179746628     -5.7179746628
    379.7481079102    346.6666564941     -5.1712722778     -5.1712722778
    379.6221618652    320.0000000000     -3.7982449532     -3.7982449532
    399.7900695801    346.6666564941     -5.7179746628     -5.7179746628
    399.8950500488    373.3333435059     -8.8061981201     -8.8061981201
    379.8740539551    373.3333435059     -7.8935399055     -7.8935399055
    379.7481079102    346.6666564941     -5.1712722778     -5.1712722778
    399.8950500488    373.3333435059     -8.8061981201     -8.8061981201
    400.0000000000    400.0000000000     -8.8061981201     -8.8061981201
    380.0000000000    400.0000000000     -7.8935399055     -7.8935399055
    379.8740539551    373.3333435059     -7.8935399055     -7.8935399055
    378.1107482910      0.0000000000     -3.0063774586     -3.0063774586
    378.2366943359     26.6666698456     -3.0063774586     -3.0063774586
    357.9428100586     26.6666698456    -13.4837551117    -13.4837551117
    357.7958679199      0.0000000000    -13.4837551117    -13.4837551117
    378.2366943359     26.6666698456     -3.0063774586     -3.0063774586
    378.3626403809     53.3333282471     -2.4354226589     -2.4354226589
    358.0897521973     53.3333282471    -11.8706026077    -11.8706026077
    357.9428100586     26.6666698456    -13.4837551117    -13.4837551117
    378.3626403809     53.3333282471     -2.4354226589     -2.4354226589
    378.4885864258     80.0000000000     -2.0079851151     -2.0079851151
    358.2366943359     80.0000000000     -9.1598854065     -9.1598854065
    358.0897521973     53.3333282471    -11.8706026077    -11.8706026077
    378.4885864258     80.0000000000     -2.0079851151     -2.0079851151
    378.6145629883    106.6666717529     -2.3735876083     -2.3735876083
    358.3836364746    106.6666717529     -5.8187675476     -5.8187675476
    358.2366943359     80.0000000000     -9.1598854065     -9.1598854065
    378.6145629883    106.6666717529     -2.3735876083     -2.3735876083
    378.7405090332    133.3333282471     -4.1576228142     -4.1576228142
    358.5305786133    133.3333282471     -3.0795350075     -3.0795350075
    358.3836364746    106.6666717529     -5.8187675476     -5.8187675476
    378.7405090332    133.3333282471     -4.1576228142     -4.1576228142
    378.8664550781    160.0000000000     -7.4638576508     -7.4638576508
    358.6775207520    160.0000000000     -2.4566648006     -2.4566648006
    358.5305786133    133.3333282471     -3.0795350075     -3.0795350075
    378.8664550781    160.0000000000     -7.4638576508     -7.4638576508
    378.9924011230    186.6666717529    -11.3021621704    -11.3021621704
    358.8244628906    186.6666717529     -4.6082448959     -4.6082448959
    358.6775207520    160.0000000000     -2.4566648006     -2.4566648006
    378.9924011230    186.6666717529    -11.3021621704    -11.3021621704
    379.1183471680    213.3333282471    -13.6749753952    -13.6749753952
    358.9714050293    213.3333282471     -8.6669826508     -8.6669826508
    358.8244628906    186.6666717529     -4.6082448959     -4.6082448959
    379.1183471680    213.3333282471    -13.6749753952    -13.6749753952
    379.2442932129    240.0000000000    -12.9203624725    -12.9203624725
    359.1183471680    240.0000000000    -12.7427768707    -12.7427768707
    358.9714050293    213.3333282471     -8.6669826508     -8.6669826508
    379.2442932129    240.0000000000    -12.9203624725    -12.9203624725
    379.3702392578    266.6666564941     -9.3846673965     -9.3846673965
    359.2652893066    266.6666564941    -14.8981275558    -14.8981275558
    359.1183471680    240.0000000000    -12.7427768707    -12.7427768707
    379.3702392578    266.6666564941     -9.3846673965     -9.3846673965
    379.4961853027    293.3333435059     -5.4684896469     -5.4684896469
    359.4122314453    293.3333435059    -13.8632068634    -13.8632068634
    359.2652893066    266.6666564941    -14.8981275558    -14.8981275558
    379.4961853027    293.3333435059     -5.4684896469     -5.4684896469
    379.6221618652    320.0000000000     -3.7982449532     -3.7982449532
    359.5591735840    320.0000000000     -9.8255500793     -9.8255500793
    359.4122314453    293.3333435059    -13.8632068634    -13.8632068634