 VARIABLES= "X","Y","Z","yita"  
ZONE N=                                        3000 E=                              750 F=FEPOINT, ET=QUADRILATERAL
    500.0000000000      0.0000000000     -8.0857696533     -8.0857696533
    500.0000000000     26.6666698456     -8.0857696533     -8.0857696533
    479.7061157227     26.6666698456     -8.0857696533     -8.0857696533
    479.6851196289      0.0000000000     -8.0857696533     -8.0857696533
    500.0000000000     26.6666698456     -8.0857696533     -8.0857696533
    500.0000000000     53.3333282471     -8.0861024857     -8.0861024857
    479.7271118164     53.3333282471     -8.0861024857     -8.0861024857
    479.7061157227     26.6666698456     -8.0857696533     -8.0857696533
    500.0000000000     53.3333282471     -8.0861024857     -8.0861024857
    500.0000000000     80.0000000000     -8.0794677734     -8.0794677734
    479.7481079102     80.0000000000     -8.0794677734     -8.0794677734
    479.7271118164     53.3333282471     -8.0861024857     -8.0861024857
    500.0000000000     80.0000000000     -8.0794677734     -8.0794677734
    500.0000000000    106.6666717529     -8.0747776031     -8.0747776031
    479.7691040039    106.6666717529     -8.0747776031     -8.0747776031
    479.7481079102     80.0000000000     -8.0794677734     -8.0794677734
    500.0000000000    106.6666717529     -8.0747776031     -8.0747776031
    500.0000000000    133.3333282471     -8.0777254105     -8.0777254105
    479.7900695801    133.3333282471     -8.0777254105     -8.0777254105
    479.7691040039    106.6666717529     -8.0747776031     -8.0747776031
    500.0000000000    133.3333282471     -8.0777254105     -8.0777254105
    500.0000000000    160.0000000000     -8.0588903427     -8.0588903427
    479.8110656738    160.0000000000     -8.0588903427     -8.0588903427
    479.7900695801    133.3333282471     -8.0777254105     -8.0777254105
    500.0000000000    160.0000000000     -8.0588903427     -8.0588903427
    500.0000000000    186.6666717529     -8.0392303467     -8.0392303467
    479.8320617676    186.6666717529     -8.0392303467     -8.0392303467
    479.8110656738    160.0000000000     -8.0588903427     -8.0588903427
    500.0000000000    186.6666717529     -8.0392303467     -8.0392303467
    500.0000000000    213.3333282471     -8.0400600433     -8.0400600433
    479.8530578613    213.3333282471     -8.0400600433     -8.0400600433
    479.8320617676    186.6666717529     -8.0392303467     -8.0392303467
    500.0000000000    213.3333282471     -8.0400600433     -8.0400600433
    500.0000000000    240.0000000000     -8.0285644531     -8.0285644531
    479.8740539551    240.0000000000     -8.0285644531     -8.0285644531
    479.8530578613    213.3333282471     -8.0400600433     -8.0400600433
    500.0000000000    240.0000000000     -8.0285644531     -8.0285644531
    500.0000000000    266.6666564941     -8.0141153336     -8.0141153336
    479.8950500488    266.6666564941     -8.0141153336     -8.0141153336
    479.8740539551    240.0000000000     -8.0285644531     -8.0285644531
    500.0000000000    266.6666564941     -8.0141153336     -8.0141153336
    500.0000000000    293.3333435059     -8.0110702515     -8.0110702515
    479.9160156250    293.3333435059     -8.0110702515     -8.0110702515
    479.8950500488    266.6666564941     -8.0141153336     -8.0141153336
    500.0000000000    293.3333435059     -8.0110702515     -8.0110702515
    500.0000000000    320.0000000000     -8.0119600296     -8.0119600296
    479.9370422363    320.0000000000     -8.0119600296     -8.0119600296
    479.9160156250    293.3333435059     -8.0110702515     -8.0110702515
    500.0000000000    320.0000000000     -8.0119600296     -8.0119600296
    500.0000000000    346.6666564941     -8.0149421692     -8.0149421692
    479.9580078125    346.6666564941     -8.0149421692     -8.0149421692
    479.9370422363    320.0000000000     -8.0119600296     -8.0119600296
    500.0000000000    346.6666564941     -8.0149421692     -8.0149421692
    500.0000000000    373.3333435059     -8.0138568878     -8.0138568878
    479.9790039062    373.3333435059     -8.0138568878     -8.0138568878
    479.9580078125    346.6666564941     -8.0149421692     -8.0149421692
    500.0000000000    373.3333435059     -8.0138568878     -8.0138568878
    500.0000000000    400.0000000000     -8.0138568878     -8.0138568878
    480.0000000000    400.0000000000     -8.0138568878     -8.0138568878
    479.9790039062    373.3333435059     -8.0138568878     -8.0138568878
    479.6851196289      0.0000000000     -8.0857696533     -8.0857696533
    479.7061157227     26.6666698456     -8.0857696533     -8.0857696533
    459.4122314453     26.6666698456     -9.1316223145     -9.1316223145
    459.3702392578      0.0000000000     -9.1316223145     -9.1316223145
    479.7061157227     26.6666698456     -8.0857696533     -8.0857696533
    479.7271118164     53.3333282471     -8.0861024857     -8.0861024857
    459.4542236328     53.3333282471     -9.1318750381     -9.1318750381
    459.4122314453     26.6666698456     -9.1316223145     -9.1316223145
    479.7271118164     53.3333282471     -8.0861024857     -8.0861024857
    479.7481079102     80.0000000000     -8.0794677734     -8.0794677734
    459.4961853027     80.0000000000     -9.1290349960     -9.1290349960
    459.4542236328     53.3333282471     -9.1318750381     -9.1318750381
    479.7481079102     80.0000000000     -8.0794677734     -8.0794677734
    479.7691040039    106.6666717529     -8.0747776031     -8.0747776031
    459.5381774902    106.6666717529     -9.1195583344     -9.1195583344
    459.4961853027     80.0000000000     -9.1290349960     -9.1290349960
    479.7691040039    106.6666717529     -8.0747776031     -8.0747776031
    479.7900695801    133.3333282471     -8.0777254105     -8.0777254105
    459.5801696777    133.3333282471     -9.1008901596     -9.1008901596
    459.5381774902    106.6666717529     -9.1195583344     -9.1195583344
    479.7900695801    133.3333282471     -8.0777254105     -8.0777254105
    479.8110656738    160.0000000000     -8.0588903427     -8.0588903427
    459.6221618652    160.0000000000     -9.0738048553     -9.0738048553
    459.5801696777    133.3333282471     -9.1008901596     -9.1008901596
    479.8110656738    160.0000000000     -8.0588903427     -8.0588903427
    479.8320617676    186.6666717529     -8.0392303467     -8.0392303467
    459.6641235352    186.6666717529     -9.0458278656     -9.0458278656
    459.6221618652    160.0000000000     -9.0738048553     -9.0738048553
    479.8320617676    186.6666717529     -8.0392303467     -8.0392303467
    479.8530578613    213.3333282471     -8.0400600433     -8.0400600433
    459.7061157227    213.3333282471     -9.0276050568     -9.0276050568
    459.6641235352    186.6666717529     -9.0458278656     -9.0458278656
    479.8530578613    213.3333282471     -8.0400600433     -8.0400600433
    479.8740539551    240.0000000000     -8.0285644531     -8.0285644531
    459.7481079102    240.0000000000     -9.0257024765     -9.0257024765
    459.7061157227    213.3333282471     -9.0276050568     -9.0276050568
    479.8740539551    240.0000000000     -8.0285644531     -8.0285644531
    479.8950500488    266.6666564941     -8.0141153336     -8.0141153336
    459.7900695801    266.6666564941     -9.0395746231     -9.0395746231
    459.7481079102    240.0000000000     -9.0257024765     -9.0257024765
    479.8950500488    266.6666564941     -8.0141153336     -8.0141153336
    479.9160156250    293.3333435059     -8.0110702515     -8.0110702515
    459.8320617676    293.3333435059     -9.0599451065     -9.0599451065
    459.7900695801    266.6666564941     -9.0395746231     -9.0395746231
    479.9160156250    293.3333435059     -8.0110702515     -8.0110702515
    479.9370422363    320.0000000000     -8.0119600296     -8.0119600296
    459.8740539551    320.0000000000     -9.0735073090     -9.0735073090
    459.8320617676    293.3333435059     -9.0599451065     -9.0599451065
    479.9370422363    320.0000000000     -8.0119600296     -8.0119600296
    479.9580078125    346.6666564941     -8.0149421692     -8.0149421692
    459.9160156250    346.6666564941     -9.0736875534     -9.0736875534
    459.8740539551    320.0000000000     -9.0735073090     -9.0735073090
    479.9580078125    346.6666564941     -8.0149421692     -8.0149421692
    479.9790039062    373.3333435059     -8.0138568878     -8.0138568878
    459.9580078125    373.3333435059     -9.0633125305     -9.0633125305
    459.9160156250    346.6666564941     -9.0736875534     -9.0736875534
    479.9790039062    373.3333435059     -8.0138568878     -8.0138568878
    480.0000000000    400.0000000000     -8.0138568878     -8.0138568878
    460.0000000000    400.0000000000     -9.0633125305     -9.0633125305
    459.9580078125    373.3333435059     -9.0633125305     -9.0633125305
    459.3702392578      0.0000000000     -9.1316223145     -9.1316223145
    459.4122314453     26.6666698456     -9.1316223145     -9.1316223145
    439.1183471680     26.6666698456     -8.9652767181     -8.9652767181
    439.0553588867      0.0000000000     -8.9652767181     -8.9652767181
    459.4122314453     26.6666698456     -9.1316223145     -9.1316223145
    459.4542236328     53.3333282471     -9.1318750381     -9.1318750381
    439.1813049316     53.3333282471     -8.9707174301     -8.9707174301
    439.1183471680     26.6666698456     -8.9652767181     -8.9652767181
    459.4542236328     53.3333282471     -9.1318750381     -9.1318750381
    459.4961853027     80.0000000000     -9.1290349960     -9.1290349960
    439.2442932129     80.0000000000     -8.9881324768     -8.9881324768
    439.1813049316     53.3333282471     -8.9707174301     -8.9707174301
    459.4961853027     80.0000000000     -9.1290349960     -9.1290349960
    459.5381774902    106.6666717529     -9.1195583344     -9.1195583344
    439.3072814941    106.6666717529     -9.0261878967     -9.0261878967
    439.2442932129     80.0000000000     -8.9881324768     -8.9881324768
    459.5381774902    106.6666717529     -9.1195583344     -9.1195583344
    459.5801696777    133.3333282471     -9.1008901596     -9.1008901596
    439.3702392578    133.3333282471     -9.0875568390     -9.0875568390
    439.3072814941    106.6666717529     -9.0261878967     -9.0261878967
    459.5801696777    133.3333282471     -9.1008901596     -9.1008901596
    459.6221618652    160.0000000000     -9.0738048553     -9.0738048553
    439.4332275391    160.0000000000     -9.1630802155     -9.1630802155
    439.3702392578    133.3333282471     -9.0875568390     -9.0875568390
    459.6221618652    160.0000000000     -9.0738048553     -9.0738048553
    459.6641235352    186.6666717529     -9.0458278656     -9.0458278656
    439.4961853027    186.6666717529     -9.2299451828     -9.2299451828
    439.4332275391    160.0000000000     -9.1630802155     -9.1630802155
    459.6641235352    186.6666717529     -9.0458278656     -9.0458278656
    459.7061157227    213.3333282471     -9.0276050568     -9.0276050568
    439.5591735840    213.3333282471     -9.2575998306     -9.2575998306
    439.4961853027    186.6666717529     -9.2299451828     -9.2299451828
    459.7061157227    213.3333282471     -9.0276050568     -9.0276050568
    459.7481079102    240.0000000000     -9.0257024765     -9.0257024765
    439.6221618652    240.0000000000     -9.2267827988     -9.2267827988
    439.5591735840    213.3333282471     -9.2575998306     -9.2575998306
    459.7481079102    240.0000000000     -9.0257024765     -9.0257024765
    459.7900695801    266.6666564941     -9.0395746231     -9.0395746231
    439.6851196289    266.6666564941     -9.1521568298     -9.1521568298
    439.6221618652    240.0000000000     -9.2267827988     -9.2267827988
    459.7900695801    266.6666564941     -9.0395746231     -9.0395746231
    459.8320617676    293.3333435059     -9.0599451065     -9.0599451065
    439.7481079102    293.3333435059     -9.0828428268     -9.0828428268
    439.6851196289    266.6666564941     -9.1521568298     -9.1521568298
    459.8320617676    293.3333435059     -9.0599451065     -9.0599451065
    459.8740539551    320.0000000000     -9.0735073090     -9.0735073090
    439.8110656738    320.0000000000     -9.0683498383     -9.0683498383
    439.7481079102    293.3333435059     -9.0828428268     -9.0828428268
    459.8740539551    320.0000000000     -9.0735073090     -9.0735073090
    459.9160156250    346.6666564941     -9.0736875534     -9.0736875534
    439.8740539551    346.6666564941     -9.1150579453     -9.1150579453
    439.8110656738    320.0000000000     -9.0683498383     -9.0683498383
    459.9160156250    346.6666564941     -9.0736875534     -9.0736875534
    459.9580078125    373.3333435059     -9.0633125305     -9.0633125305
    439.9370422363    373.3333435059     -9.1680421829     -9.1680421829
    439.8740539551    346.6666564941     -9.1150579453     -9.1150579453
    459.9580078125    373.3333435059     -9.0633125305     -9.0633125305
    460.0000000000    400.0000000000     -9.0633125305     -9.0633125305
    440.0000000000    400.0000000000     -9.1680421829     -9.1680421829
    439.9370422363    373.3333435059     -9.1680421829     -9.1680421829
    439.0553588867      0.0000000000     -8.9652767181     -8.9652767181
    439.1183471680     26.6666698456     -8.9652767181     -8.9652767181
    418.8244628906     26.6666698456    -10.5040521622    -10.5040521622
    418.7405090332      0.0000000000    -10.5040521622    -10.5040521622
    439.1183471680     26.6666698456     -8.9652767181     -8.9652767181
    439.1813049316     53.3333282471     -8.9707174301     -8.9707174301
    418.9084167480     53.3333282471    -10.5350027084    -10.5350027084
    418.8244628906     26.6666698456    -10.5040521622    -10.5040521622
    439.1813049316     53.3333282471     -8.9707174301     -8.9707174301
    439.2442932129     80.0000000000     -8.9881324768     -8.9881324768
    418.9924011230     80.0000000000    -10.4375419617    -10.4375419617
    418.9084167480     53.3333282471    -10.5350027084    -10.5350027084
    439.2442932129     80.0000000000     -8.9881324768     -8.9881324768
    439.3072814941    106.6666717529     -9.0261878967     -9.0261878967
    419.0763549805    106.6666717529    -10.0591650009    -10.0591650009
    418.9924011230     80.0000000000    -10.4375419617    -10.4375419617
    439.3072814941    106.6666717529     -9.0261878967     -9.0261878967
    439.3702392578    133.3333282471     -9.0875568390     -9.0875568390
    419.1603393555    133.3333282471     -9.3142223358     -9.3142223358
    419.0763549805    106.6666717529    -10.0591650009    -10.0591650009
    439.3702392578    133.3333282471     -9.0875568390     -9.0875568390
    439.4332275391    160.0000000000     -9.1630802155     -9.1630802155
    419.2442932129    160.0000000000     -8.2795896530     -8.2795896530
    419.1603393555    133.3333282471     -9.3142223358     -9.3142223358
    439.4332275391    160.0000000000     -9.1630802155     -9.1630802155
    439.4961853027    186.6666717529     -9.2299451828     -9.2299451828
    419.3282775879    186.6666717529     -7.2484903336     -7.2484903336
    419.2442932129    160.0000000000     -8.2795896530     -8.2795896530
    439.4961853027    186.6666717529     -9.2299451828     -9.2299451828
    439.5591735840    213.3333282471     -9.2575998306     -9.2575998306
    419.4122314453    213.3333282471     -6.6607179642     -6.6607179642
    419.3282775879    186.6666717529     -7.2484903336     -7.2484903336
    439.5591735840    213.3333282471     -9.2575998306     -9.2575998306
    439.6221618652    240.0000000000     -9.2267827988     -9.2267827988
    419.4961853027    240.0000000000     -6.8449597359     -6.8449597359
    419.4122314453    213.3333282471     -6.6607179642     -6.6607179642
    439.6221618652    240.0000000000     -9.2267827988     -9.2267827988
    439.6851196289    266.6666564941     -9.1521568298     -9.1521568298
    419.5801696777    266.6666564941     -7.7100057602     -7.7100057602
    419.4961853027    240.0000000000     -6.8449597359     -6.8449597359
    439.6851196289    266.6666564941     -9.1521568298     -9.1521568298
    439.7481079102    293.3333435059     -9.0828428268     -9.0828428268
    419.6641235352    293.3333435059     -8.6967754364     -8.6967754364
    419.5801696777    266.6666564941     -7.7100057602     -7.7100057602
    439.7481079102    293.3333435059     -9.0828428268     -9.0828428268
    439.8110656738    320.0000000000     -9.0683498383     -9.0683498383
    419.7481079102    320.0000000000     -9.1555805206     -9.1555805206
    419.6641235352    293.3333435059     -8.6967754364     -8.6967754364
    439.8110656738    320.0000000000     -9.0683498383     -9.0683498383
    439.8740539551    346.6666564941     -9.1150579453     -9.1150579453
    419.8320617676    346.6666564941     -8.8786630630     -8.8786630630
    419.7481079102    320.0000000000     -9.1555805206     -9.1555805206
    439.8740539551    346.6666564941     -9.1150579453     -9.1150579453
    439.9370422363    373.3333435059     -9.1680421829     -9.1680421829
    419.9160156250    373.3333435059     -8.2730903625     -8.2730903625
    419.8320617676    346.6666564941     -8.8786630630     -8.8786630630
    439.9370422363    373.3333435059     -9.1680421829     -9.1680421829
    440.0000000000    400.0000000000     -9.1680421829     -9.1680421829
    420.0000000000    400.0000000000     -8.2730903625     -8.2730903625
    419.9160156250    373.3333435059     -8.2730903625     -8.2730903625
    418.7405090332      0.0000000000    -10.5040521622    -10.5040521622
    418.8244628906     26.6666698456    -10.5040521622    -10.5040521622
    398.5305786133     26.6666698456    -10.6792745590    -10.6792745590
    398.4256286621      0.0000000000    -10.6792745590    -10.6792745590
    418.8244628906     26.6666698456    -10.5040521622    -10.5040521622
    418.9084167480     53.3333282471    -10.5350027084    -10.5350027084
    398.6355285645     53.3333282471    -11.3537950516    -11.3537950516
    398.5305786133     26.6666698456    -10.6792745590    -10.6792745590
    418.9084167480     53.3333282471    -10.5350027084    -10.5350027084
    418.9924011230     80.0000000000    -10.4375419617    -10.4375419617
    398.7405090332     80.0000000000    -12.0717906952    -12.0717906952
    398.6355285645     53.3333282471    -11.3537950516    -11.3537950516
    418.9924011230     80.0000000000    -10.4375419617    -10.4375419617
    419.0763549805    106.6666717529    -10.0591650009    -10.0591650009
    398.8454589844    106.6666717529    -12.2882156372    -12.2882156372
    398.7405090332     80.0000000000    -12.0717906952    -12.0717906952
    419.0763549805    106.6666717529    -10.0591650009    -10.0591650009
    419.1603393555    133.3333282471     -9.3142223358     -9.3142223358
    398.9504089355    133.3333282471    -11.4186553955    -11.4186553955
    398.8454589844    106.6666717529    -12.2882156372    -12.2882156372
    419.1603393555    133.3333282471     -9.3142223358     -9.3142223358
    419.2442932129    160.0000000000     -8.2795896530     -8.2795896530
    399.0553588867    160.0000000000     -9.1871433258     -9.1871433258
    398.9504089355    133.3333282471    -11.4186553955    -11.4186553955
    419.2442932129    160.0000000000     -8.2795896530     -8.2795896530
    419.3282775879    186.6666717529     -7.2484903336     -7.2484903336
    399.1603393555    186.6666717529     -6.0418548584     -6.0418548584
    399.0553588867    160.0000000000     -9.1871433258     -9.1871433258
    419.3282775879    186.6666717529     -7.2484903336     -7.2484903336
    419.4122314453    213.3333282471     -6.6607179642     -6.6607179642
    399.2652893066    213.3333282471     -3.2283425331     -3.2283425331
    399.1603393555    186.6666717529     -6.0418548584     -6.0418548584
    419.4122314453    213.3333282471     -6.6607179642     -6.6607179642
    419.4961853027    240.0000000000     -6.8449597359     -6.8449597359
    399.3702392578    240.0000000000     -2.1196999550     -2.1196999550
    399.2652893066    213.3333282471     -3.2283425331     -3.2283425331
    419.4961853027    240.0000000000     -6.8449597359     -6.8449597359
    419.5801696777    266.6666564941     -7.7100057602     -7.7100057602
    399.4752197266    266.6666564941     -3.1944422722     -3.1944422722
    399.3702392578    240.0000000000     -2.1196999550     -2.1196999550
    419.5801696777    266.6666564941     -7.7100057602     -7.7100057602
    419.6641235352    293.3333435059     -8.6967754364     -8.6967754364
    399.5801696777    293.3333435059     -5.6423301697     -5.6423301697
    399.4752197266    266.6666564941     -3.1944422722     -3.1944422722
    419.6641235352    293.3333435059     -8.6967754364     -8.6967754364
    419.7481079102    320.0000000000     -9.1555805206     -9.1555805206
    399.6851196289    320.0000000000     -7.9289898872     -7.9289898872
    399.5801696777    293.3333435059     -5.6423301697     -5.6423301697
    419.7481079102    320.0000000000     -9.1555805206     -9.1555805206
    419.8320617676    346.6666564941     -8.8786630630     -8.8786630630
    399.7900695801    346.6666564941     -8.8436803818     -8.8436803818
    399.6851196289    320.0000000000     -7.9289898872     -7.9289898872
    419.8320617676    346.6666564941     -8.8786630630     -8.8786630630
    419.9160156250    373.3333435059     -8.2730903625     -8.2730903625
    399.8950500488    373.3333435059     -8.3232898712     -8.3232898712
    399.7900695801    346.6666564941     -8.8436803818     -8.8436803818
    419.9160156250    373.3333435059     -8.2730903625     -8.2730903625
    420.0000000000    400.0000000000     -8.2730903625     -8.2730903625
    400.0000000000    400.0000000000     -8.3232898712     -8.3232898712
    399.8950500488    373.3333435059     -8.3232898712     -8.3232898712
    398.4256286621      0.0000000000    -10.6792745590    -10.6792745590
    398.5305786133     26.6666698456    -10.6792745590    -10.6792745590
    378.2366943359     26.6666698456     -1.2163776159     -1.2163776159
    378.1107482910      0.0000000000     -1.2163776159     -1.2163776159
    398.5305786133     26.6666698456    -10.6792745590    -10.6792745590
    398.6355285645     53.3333282471    -11.3537950516    -11.3537950516
    378.3626403809     53.3333282471     -2.3571672440     -2.3571672440
    378.2366943359     26.6666698456     -1.2163776159     -1.2163776159
    398.6355285645     53.3333282471    -11.3537950516    -11.3537950516
    398.7405090332     80.0000000000    -12.0717906952    -12.0717906952
    378.4885864258     80.0000000000     -4.2799248695     -4.2799248695
    378.3626403809     53.3333282471     -2.3571672440     -2.3571672440
    398.7405090332     80.0000000000    -12.0717906952    -12.0717906952
    398.8454589844    106.6666717529    -12.2882156372    -12.2882156372
    378.6145629883    106.6666717529     -6.7225852013     -6.7225852013
    378.4885864258     80.0000000000     -4.2799248695     -4.2799248695
    398.8454589844    106.6666717529    -12.2882156372    -12.2882156372
    398.9504089355    133.3333282471    -11.4186553955    -11.4186553955
    378.7405090332    133.3333282471     -8.9227399826     -8.9227399826
    378.6145629883    106.6666717529     -6.7225852013     -6.7225852013
    398.9504089355    133.3333282471    -11.4186553955    -11.4186553955
    399.0553588867    160.0000000000     -9.1871433258     -9.1871433258
    378.8664550781    160.0000000000     -9.8111524582     -9.8111524582
    378.7405090332    133.3333282471     -8.9227399826     -8.9227399826
    399.0553588867    160.0000000000     -9.1871433258     -9.1871433258
    399.1603393555    186.6666717529     -6.0418548584     -6.0418548584
    378.9924011230    186.6666717529     -8.6358900070     -8.6358900070
    378.8664550781    160.0000000000     -9.8111524582     -9.8111524582
    399.1603393555    186.6666717529     -6.0418548584     -6.0418548584
    399.2652893066    213.3333282471     -3.2283425331     -3.2283425331
    379.1183471680    213.3333282471     -5.5451650620     -5.5451650620
    378.9924011230    186.6666717529     -8.6358900070     -8.6358900070
    399.2652893066    213.3333282471     -3.2283425331     -3.2283425331
    399.3702392578    240.0000000000     -2.1196999550     -2.1196999550
    379.2442932129    240.0000000000     -1.6686125994     -1.6686125994
    379.1183471680    213.3333282471     -5.5451650620     -5.5451650620
    399.3702392578    240.0000000000     -2.1196999550     -2.1196999550
    399.4752197266    266.6666564941     -3.1944422722     -3.1944422722
    379.3702392578    266.6666564941      1.2265125513      1.2265125513
    379.2442932129    240.0000000000     -1.6686125994     -1.6686125994
    399.4752197266    266.6666564941     -3.1944422722     -3.1944422722
    399.5801696777    293.3333435059     -5.6423301697     -5.6423301697
    379.4961853027    293.3333435059      1.3723800182      1.3723800182
    379.3702392578    266.6666564941      1.2265125513      1.2265125513
    399.5801696777    293.3333435059     -5.6423301697     -5.6423301697
    399.6851196289    320.0000000000     -7.9289898872     -7.9289898872
    379.6221618652    320.0000000000     -1.7610324621     -1.7610324621
    379.4961853027    293.3333435059      1.3723800182      1.3723800182
    399.6851196289    320.0000000000     -7.9289898872     -7.9289898872
    399.7900695801    346.6666564941     -8.8436803818     -8.8436803818
    379.7481079102    346.6666564941     -6.3848772049     -6.3848772049
    379.6221618652    320.0000000000     -1.7610324621     -1.7610324621
    399.7900695801    346.6666564941     -8.8436803818     -8.8436803818
    399.8950500488    373.3333435059     -8.3232898712     -8.3232898712
    379.8740539551    373.3333435059     -9.2769851685     -9.2769851685
    379.7481079102    346.6666564941     -6.3848772049     -6.3848772049
    399.8950500488    373.3333435059     -8.3232898712     -8.3232898712
    400.0000000000    400.0000000000     -8.3232898712     -8.3232898712
    380.0000000000    400.0000000000     -9.2769851685     -9.2769851685
    379.8740539551    373.3333435059     -9.2769851685     -9.2769851685
    378.1107482910      0.0000000000     -1.2163776159     -1.2163776159
    378.2366943359     26.6666698456     -1.2163776159     -1.2163776159
    357.9428100586     26.6666698456      6.0192499161      6.0192499161
    357.7958679199      0.0000000000      6.0192499161      6.0192499161
    378.2366943359     26.6666698456     -1.2163776159     -1.2163776159
    378.3626403809     53.3333282471     -2.3571672440     -2.3571672440
    358.0897521973     53.3333282471      6.4908199310      6.4908199310
    357.9428100586     26.6666698456      6.0192499161      6.0192499161
    378.3626403809     53.3333282471     -2.3571672440     -2.3571672440
    378.4885864258     80.0000000000     -4.2799248695     -4.2799248695
    358.2366943359     80.0000000000      6.4927949905      6.4927949905
    358.0897521973     53.3333282471      6.4908199310      6.4908199310
    378.4885864258     80.0000000000     -4.2799248695     -4.2799248695
    378.6145629883    106.6666717529     -6.7225852013     -6.7225852013
    358.3836364746    106.6666717529      5.1997151375      5.1997151375
    358.2366943359     80.0000000000      6.4927949905      6.4927949905
    378.6145629883    106.6666717529     -6.7225852013     -6.7225852013
    378.7405090332    133.3333282471     -8.9227399826     -8.9227399826
    358.5305786133    133.3333282471      2.1428101063      2.1428101063
    358.3836364746    106.6666717529      5.1997151375      5.1997151375
    378.7405090332    133.3333282471     -8.9227399826     -8.9227399826
    378.8664550781    160.0000000000     -9.8111524582     -9.8111524582
    358.6775207520    160.0000000000     -2.2604150772     -2.2604150772
    358.5305786133    133.3333282471      2.1428101063      2.1428101063
    378.8664550781    160.0000000000     -9.8111524582     -9.8111524582
    378.9924011230    186.6666717529     -8.6358900070     -8.6358900070
    358.8244628906    186.6666717529     -6.4229102135     -6.4229102135
    358.6775207520    160.0000000000     -2.2604150772     -2.2604150772
    378.9924011230    186.6666717529     -8.6358900070     -8.6358900070
    379.1183471680    213.3333282471     -5.5451650620     -5.5451650620
    358.9714050293    213.3333282471     -7.9668502808     -7.9668502808
    358.8244628906    186.6666717529     -6.4229102135     -6.4229102135
    379.1183471680    213.3333282471     -5.5451650620     -5.5451650620
    379.2442932129    240.0000000000     -1.6686125994     -1.6686125994
    359.1183471680    240.0000000000     -5.2823901176     -5.2823901176
    358.9714050293    213.3333282471     -7.9668502808     -7.9668502808
    379.2442932129    240.0000000000     -1.6686125994     -1.6686125994
    379.3702392578    266.6666564941      1.2265125513      1.2265125513
    359.2652893066    266.6666564941      0.4349349737      0.4349349737
    359.1183471680    240.0000000000     -5.2823901176     -5.2823901176
    379.3702392578    266.6666564941      1.2265125513      1.2265125513
    379.4961853027    293.3333435059      1.3723800182      1.3723800182
    359.4122314453    293.3333435059      5.0770521164      5.0770521164
    359.2652893066    266.6666564941      0.4349349737      0.4349349737
    379.4961853027    293.3333435059      1.3723800182      1.3723800182
    379.6221618652    320.0000000000     -1.7610324621     -1.7610324621
    359.5591735840    320.0000000000      4.7297601700      4.7297601700
    359.4122314453    293.3333435059      5.0770521164      5.0770521164