 VARIABLES= "X","Y","Z","yita"  
ZONE N=                                        3000 E=                              750 F=FEPOINT, ET=QUADRILATERAL
    500.0000000000      0.0000000000      6.8551173210      6.8551173210
    500.0000000000     26.6666698456      6.8551173210      6.8551173210
    479.7061157227     26.6666698456      6.8551173210      6.8551173210
    479.6851196289      0.0000000000      6.8551173210      6.8551173210
    500.0000000000     26.6666698456      6.8551173210      6.8551173210
    500.0000000000     53.3333282471      6.8587298393      6.8587298393
    479.7271118164     53.3333282471      6.8587298393      6.8587298393
    479.7061157227     26.6666698456      6.8551173210      6.8551173210
    500.0000000000     53.3333282471      6.8587298393      6.8587298393
    500.0000000000     80.0000000000      6.8455324173      6.8455324173
    479.7481079102     80.0000000000      6.8455324173      6.8455324173
    479.7271118164     53.3333282471      6.8587298393      6.8587298393
    500.0000000000     80.0000000000      6.8455324173      6.8455324173
    500.0000000000    106.6666717529      6.8329448700      6.8329448700
    479.7691040039    106.6666717529      6.8329448700      6.8329448700
    479.7481079102     80.0000000000      6.8455324173      6.8455324173
    500.0000000000    106.6666717529      6.8329448700      6.8329448700
    500.0000000000    133.3333282471      6.8368501663      6.8368501663
    479.7900695801    133.3333282471      6.8368501663      6.8368501663
    479.7691040039    106.6666717529      6.8329448700      6.8329448700
    500.0000000000    133.3333282471      6.8368501663      6.8368501663
    500.0000000000    160.0000000000      6.8263549805      6.8263549805
    479.8110656738    160.0000000000      6.8263549805      6.8263549805
    479.7900695801    133.3333282471      6.8368501663      6.8368501663
    500.0000000000    160.0000000000      6.8263549805      6.8263549805
    500.0000000000    186.6666717529      6.8132123947      6.8132123947
    479.8320617676    186.6666717529      6.8132123947      6.8132123947
    479.8110656738    160.0000000000      6.8263549805      6.8263549805
    500.0000000000    186.6666717529      6.8132123947      6.8132123947
    500.0000000000    213.3333282471      6.8137402534      6.8137402534
    479.8530578613    213.3333282471      6.8137402534      6.8137402534
    479.8320617676    186.6666717529      6.8132123947      6.8132123947
    500.0000000000    213.3333282471      6.8137402534      6.8137402534
    500.0000000000    240.0000000000      6.8207473755      6.8207473755
    479.8740539551    240.0000000000      6.8207473755      6.8207473755
    479.8530578613    213.3333282471      6.8137402534      6.8137402534
    500.0000000000    240.0000000000      6.8207473755      6.8207473755
    500.0000000000    266.6666564941      6.8276853561      6.8276853561
    479.8950500488    266.6666564941      6.8276853561      6.8276853561
    479.8740539551    240.0000000000      6.8207473755      6.8207473755
    500.0000000000    266.6666564941      6.8276853561      6.8276853561
    500.0000000000    293.3333435059      6.8292980194      6.8292980194
    479.9160156250    293.3333435059      6.8292980194      6.8292980194
    479.8950500488    266.6666564941      6.8276853561      6.8276853561
    500.0000000000    293.3333435059      6.8292980194      6.8292980194
    500.0000000000    320.0000000000      6.8364796638      6.8364796638
    479.9370422363    320.0000000000      6.8364796638      6.8364796638
    479.9160156250    293.3333435059      6.8292980194      6.8292980194
    500.0000000000    320.0000000000      6.8364796638      6.8364796638
    500.0000000000    346.6666564941      6.8451552391      6.8451552391
    479.9580078125    346.6666564941      6.8451552391      6.8451552391
    479.9370422363    320.0000000000      6.8364796638      6.8364796638
    500.0000000000    346.6666564941      6.8451552391      6.8451552391
    500.0000000000    373.3333435059      6.8477425575      6.8477425575
    479.9790039062    373.3333435059      6.8477425575      6.8477425575
    479.9580078125    346.6666564941      6.8451552391      6.8451552391
    500.0000000000    373.3333435059      6.8477425575      6.8477425575
    500.0000000000    400.0000000000      6.8477425575      6.8477425575
    480.0000000000    400.0000000000      6.8477425575      6.8477425575
    479.9790039062    373.3333435059      6.8477425575      6.8477425575
    479.6851196289      0.0000000000      6.8551173210      6.8551173210
    479.7061157227     26.6666698456      6.8551173210      6.8551173210
    459.4122314453     26.6666698456      4.4711275101      4.4711275101
    459.3702392578      0.0000000000      4.4711275101      4.4711275101
    479.7061157227     26.6666698456      6.8551173210      6.8551173210
    479.7271118164     53.3333282471      6.8587298393      6.8587298393
    459.4542236328     53.3333282471      4.4663949013      4.4663949013
    459.4122314453     26.6666698456      4.4711275101      4.4711275101
    479.7271118164     53.3333282471      6.8587298393      6.8587298393
    479.7481079102     80.0000000000      6.8455324173      6.8455324173
    459.4961853027     80.0000000000      4.4543428421      4.4543428421
    459.4542236328     53.3333282471      4.4663949013      4.4663949013
    479.7481079102     80.0000000000      6.8455324173      6.8455324173
    479.7691040039    106.6666717529      6.8329448700      6.8329448700
    459.5381774902    106.6666717529      4.4377698898      4.4377698898
    459.4961853027     80.0000000000      4.4543428421      4.4543428421
    479.7691040039    106.6666717529      6.8329448700      6.8329448700
    479.7900695801    133.3333282471      6.8368501663      6.8368501663
    459.5801696777    133.3333282471      4.4218001366      4.4218001366
    459.5381774902    106.6666717529      4.4377698898      4.4377698898
    479.7900695801    133.3333282471      6.8368501663      6.8368501663
    479.8110656738    160.0000000000      6.8263549805      6.8263549805
    459.6221618652    160.0000000000      4.4121775627      4.4121775627
    459.5801696777    133.3333282471      4.4218001366      4.4218001366
    479.8110656738    160.0000000000      6.8263549805      6.8263549805
    479.8320617676    186.6666717529      6.8132123947      6.8132123947
    459.6641235352    186.6666717529      4.4154601097      4.4154601097
    459.6221618652    160.0000000000      4.4121775627      4.4121775627
    479.8320617676    186.6666717529      6.8132123947      6.8132123947
    479.8530578613    213.3333282471      6.8137402534      6.8137402534
    459.7061157227    213.3333282471      4.4343800545      4.4343800545
    459.6641235352    186.6666717529      4.4154601097      4.4154601097
    479.8530578613    213.3333282471      6.8137402534      6.8137402534
    479.8740539551    240.0000000000      6.8207473755      6.8207473755
    459.7481079102    240.0000000000      4.4634175301      4.4634175301
    459.7061157227    213.3333282471      4.4343800545      4.4343800545
    479.8740539551    240.0000000000      6.8207473755      6.8207473755
    479.8950500488    266.6666564941      6.8276853561      6.8276853561
    459.7900695801    266.6666564941      4.4913301468      4.4913301468
    459.7481079102    240.0000000000      4.4634175301      4.4634175301
    479.8950500488    266.6666564941      6.8276853561      6.8276853561
    479.9160156250    293.3333435059      6.8292980194      6.8292980194
    459.8320617676    293.3333435059      4.5074872971      4.5074872971
    459.7900695801    266.6666564941      4.4913301468      4.4913301468
    479.9160156250    293.3333435059      6.8292980194      6.8292980194
    479.9370422363    320.0000000000      6.8364796638      6.8364796638
    459.8740539551    320.0000000000      4.5084800720      4.5084800720
    459.8320617676    293.3333435059      4.5074872971      4.5074872971
    479.9370422363    320.0000000000      6.8364796638      6.8364796638
    479.9580078125    346.6666564941      6.8451552391      6.8451552391
    459.9160156250    346.6666564941      4.5002326965      4.5002326965
    459.8740539551    320.0000000000      4.5084800720      4.5084800720
    479.9580078125    346.6666564941      6.8451552391      6.8451552391
    479.9790039062    373.3333435059      6.8477425575      6.8477425575
    459.9580078125    373.3333435059      4.4924650192      4.4924650192
    459.9160156250    346.6666564941      4.5002326965      4.5002326965
    479.9790039062    373.3333435059      6.8477425575      6.8477425575
    480.0000000000    400.0000000000      6.8477425575      6.8477425575
    460.0000000000    400.0000000000      4.4924650192      4.4924650192
    459.9580078125    373.3333435059      4.4924650192      4.4924650192
    459.3702392578      0.0000000000      4.4711275101      4.4711275101
    459.4122314453     26.6666698456      4.4711275101      4.4711275101
    439.1183471680     26.6666698456      1.4931474924      1.4931474924
    439.0553588867      0.0000000000      1.4931474924      1.4931474924
    459.4122314453     26.6666698456      4.4711275101      4.4711275101
    459.4542236328     53.3333282471      4.4663949013      4.4663949013
    439.1813049316     53.3333282471      1.5285074711      1.5285074711
    439.1183471680     26.6666698456      1.4931474924      1.4931474924
    459.4542236328     53.3333282471      4.4663949013      4.4663949013
    459.4961853027     80.0000000000      4.4543428421      4.4543428421
    439.2442932129     80.0000000000      1.5794448853      1.5794448853
    439.1813049316     53.3333282471      1.5285074711      1.5285074711
    459.4961853027     80.0000000000      4.4543428421      4.4543428421
    459.5381774902    106.6666717529      4.4377698898      4.4377698898
    439.3072814941    106.6666717529      1.6391199827      1.6391199827
    439.2442932129     80.0000000000      1.5794448853      1.5794448853
    459.5381774902    106.6666717529      4.4377698898      4.4377698898
    459.5801696777    133.3333282471      4.4218001366      4.4218001366
    439.3702392578    133.3333282471      1.6925700903      1.6925700903
    439.3072814941    106.6666717529      1.6391199827      1.6391199827
    459.5801696777    133.3333282471      4.4218001366      4.4218001366
    459.6221618652    160.0000000000      4.4121775627      4.4121775627
    439.4332275391    160.0000000000      1.7194401026      1.7194401026
    439.3702392578    133.3333282471      1.6925700903      1.6925700903
    459.6221618652    160.0000000000      4.4121775627      4.4121775627
    459.6641235352    186.6666717529      4.4154601097      4.4154601097
    439.4961853027    186.6666717529      1.7052625418      1.7052625418
    439.4332275391    160.0000000000      1.7194401026      1.7194401026
    459.6641235352    186.6666717529      4.4154601097      4.4154601097
    459.7061157227    213.3333282471      4.4343800545      4.4343800545
    439.5591735840    213.3333282471      1.6538349390      1.6538349390
    439.4961853027    186.6666717529      1.7052625418      1.7052625418
    459.7061157227    213.3333282471      4.4343800545      4.4343800545
    459.7481079102    240.0000000000      4.4634175301      4.4634175301
    439.6221618652    240.0000000000      1.5904624462      1.5904624462
    439.5591735840    213.3333282471      1.6538349390      1.6538349390
    459.7481079102    240.0000000000      4.4634175301      4.4634175301
    459.7900695801    266.6666564941      4.4913301468      4.4913301468
    439.6851196289    266.6666564941      1.5510874987      1.5510874987
    439.6221618652    240.0000000000      1.5904624462      1.5904624462
    459.7900695801    266.6666564941      4.4913301468      4.4913301468
    459.8320617676    293.3333435059      4.5074872971      4.5074872971
    439.7481079102    293.3333435059      1.5608249903      1.5608249903
    439.6851196289    266.6666564941      1.5510874987      1.5510874987
    459.8320617676    293.3333435059      4.5074872971      4.5074872971
    459.8740539551    320.0000000000      4.5084800720      4.5084800720
    439.8110656738    320.0000000000      1.6165649891      1.6165649891
    439.7481079102    293.3333435059      1.5608249903      1.5608249903
    459.8740539551    320.0000000000      4.5084800720      4.5084800720
    459.9160156250    346.6666564941      4.5002326965      4.5002326965
    439.8740539551    346.6666564941      1.6879699230      1.6879699230
    439.8110656738    320.0000000000      1.6165649891      1.6165649891
    459.9160156250    346.6666564941      4.5002326965      4.5002326965
    459.9580078125    373.3333435059      4.4924650192      4.4924650192
    439.9370422363    373.3333435059      1.7338349819      1.7338349819
    439.8740539551    346.6666564941      1.6879699230      1.6879699230
    459.9580078125    373.3333435059      4.4924650192      4.4924650192
    460.0000000000    400.0000000000      4.4924650192      4.4924650192
    440.0000000000    400.0000000000      1.7338349819      1.7338349819
    439.9370422363    373.3333435059      1.7338349819      1.7338349819
    439.0553588867      0.0000000000      1.4931474924      1.4931474924
    439.1183471680     26.6666698456      1.4931474924      1.4931474924
    418.8244628906     26.6666698456     -0.1744225025     -0.1744225025
    418.7405090332      0.0000000000     -0.1744225025     -0.1744225025
    439.1183471680     26.6666698456      1.4931474924      1.4931474924
    439.1813049316     53.3333282471      1.5285074711      1.5285074711
    418.9084167480     53.3333282471     -0.5381425023     -0.5381425023
    418.8244628906     26.6666698456     -0.1744225025     -0.1744225025
    439.1813049316     53.3333282471      1.5285074711      1.5285074711
    439.2442932129     80.0000000000      1.5794448853      1.5794448853
    418.9924011230     80.0000000000     -1.1486799717     -1.1486799717
    418.9084167480     53.3333282471     -0.5381425023     -0.5381425023
    439.2442932129     80.0000000000      1.5794448853      1.5794448853
    439.3072814941    106.6666717529      1.6391199827      1.6391199827
    419.0763549805    106.6666717529     -1.9339275360     -1.9339275360
    418.9924011230     80.0000000000     -1.1486799717     -1.1486799717
    439.3072814941    106.6666717529      1.6391199827      1.6391199827
    439.3702392578    133.3333282471      1.6925700903      1.6925700903
    419.1603393555    133.3333282471     -2.7025325298     -2.7025325298
    419.0763549805    106.6666717529     -1.9339275360     -1.9339275360
    439.3702392578    133.3333282471      1.6925700903      1.6925700903
    439.4332275391    160.0000000000      1.7194401026      1.7194401026
    419.2442932129    160.0000000000     -3.1667275429     -3.1667275429
    419.1603393555    133.3333282471     -2.7025325298     -2.7025325298
    439.4332275391    160.0000000000      1.7194401026      1.7194401026
    439.4961853027    186.6666717529      1.7052625418      1.7052625418
    419.3282775879    186.6666717529     -3.0735299587     -3.0735299587
    419.2442932129    160.0000000000     -3.1667275429     -3.1667275429
    439.4961853027    186.6666717529      1.7052625418      1.7052625418
    439.5591735840    213.3333282471      1.6538349390      1.6538349390
    419.4122314453    213.3333282471     -2.3835802078     -2.3835802078
    419.3282775879    186.6666717529     -3.0735299587     -3.0735299587
    439.5591735840    213.3333282471      1.6538349390      1.6538349390
    439.6221618652    240.0000000000      1.5904624462      1.5904624462
    419.4961853027    240.0000000000     -1.3661575317     -1.3661575317
    419.4122314453    213.3333282471     -2.3835802078     -2.3835802078
    439.6221618652    240.0000000000      1.5904624462      1.5904624462
    439.6851196289    266.6666564941      1.5510874987      1.5510874987
    419.5801696777    266.6666564941     -0.5098674893     -0.5098674893
    419.4961853027    240.0000000000     -1.3661575317     -1.3661575317
    439.6851196289    266.6666564941      1.5510874987      1.5510874987
    439.7481079102    293.3333435059      1.5608249903      1.5608249903
    419.6641235352    293.3333435059     -0.2514550090     -0.2514550090
    419.5801696777    266.6666564941     -0.5098674893     -0.5098674893
    439.7481079102    293.3333435059      1.5608249903      1.5608249903
    439.8110656738    320.0000000000      1.6165649891      1.6165649891
    419.7481079102    320.0000000000     -0.6833024621     -0.6833024621
    419.6641235352    293.3333435059     -0.2514550090     -0.2514550090
    439.8110656738    320.0000000000      1.6165649891      1.6165649891
    439.8740539551    346.6666564941      1.6879699230      1.6879699230
    419.8320617676    346.6666564941     -1.4612250328     -1.4612250328
    419.7481079102    320.0000000000     -0.6833024621     -0.6833024621
    439.8740539551    346.6666564941      1.6879699230      1.6879699230
    439.9370422363    373.3333435059      1.7338349819      1.7338349819
    419.9160156250    373.3333435059     -2.0271825790     -2.0271825790
    419.8320617676    346.6666564941     -1.4612250328     -1.4612250328
    439.9370422363    373.3333435059      1.7338349819      1.7338349819
    440.0000000000    400.0000000000      1.7338349819      1.7338349819
    420.0000000000    400.0000000000     -2.0271825790     -2.0271825790
    419.9160156250    373.3333435059     -2.0271825790     -2.0271825790
    418.7405090332      0.0000000000     -0.1744225025     -0.1744225025
    418.8244628906     26.6666698456     -0.1744225025     -0.1744225025
    398.5305786133     26.6666698456      1.0956950188      1.0956950188
    398.4256286621      0.0000000000      1.0956950188      1.0956950188
    418.8244628906     26.6666698456     -0.1744225025     -0.1744225025
    418.9084167480     53.3333282471     -0.5381425023     -0.5381425023
    398.6355285645     53.3333282471      0.5112600327      0.5112600327
    398.5305786133     26.6666698456      1.0956950188      1.0956950188
    418.9084167480     53.3333282471     -0.5381425023     -0.5381425023
    418.9924011230     80.0000000000     -1.1486799717     -1.1486799717
    398.7405090332     80.0000000000     -0.7152274847     -0.7152274847
    398.6355285645     53.3333282471      0.5112600327      0.5112600327
    418.9924011230     80.0000000000     -1.1486799717     -1.1486799717
    419.0763549805    106.6666717529     -1.9339275360     -1.9339275360
    398.8454589844    106.6666717529     -2.7112801075     -2.7112801075
    398.7405090332     80.0000000000     -0.7152274847     -0.7152274847
    419.0763549805    106.6666717529     -1.9339275360     -1.9339275360
    419.1603393555    133.3333282471     -2.7025325298     -2.7025325298
    398.9504089355    133.3333282471     -5.2722253799     -5.2722253799
    398.8454589844    106.6666717529     -2.7112801075     -2.7112801075
    419.1603393555    133.3333282471     -2.7025325298     -2.7025325298
    419.2442932129    160.0000000000     -3.1667275429     -3.1667275429
    399.0553588867    160.0000000000     -7.7248201370     -7.7248201370
    398.9504089355    133.3333282471     -5.2722253799     -5.2722253799
    419.2442932129    160.0000000000     -3.1667275429     -3.1667275429
    419.3282775879    186.6666717529     -3.0735299587     -3.0735299587
    399.1603393555    186.6666717529     -9.0984020233     -9.0984020233
    399.0553588867    160.0000000000     -7.7248201370     -7.7248201370
    419.3282775879    186.6666717529     -3.0735299587     -3.0735299587
    419.4122314453    213.3333282471     -2.3835802078     -2.3835802078
    399.2652893066    213.3333282471     -8.6144504547     -8.6144504547
    399.1603393555    186.6666717529     -9.0984020233     -9.0984020233
    419.4122314453    213.3333282471     -2.3835802078     -2.3835802078
    419.4961853027    240.0000000000     -1.3661575317     -1.3661575317
    399.3702392578    240.0000000000     -6.2554326057     -6.2554326057
    399.2652893066    213.3333282471     -8.6144504547     -8.6144504547
    419.4961853027    240.0000000000     -1.3661575317     -1.3661575317
    419.5801696777    266.6666564941     -0.5098674893     -0.5098674893
    399.4752197266    266.6666564941     -3.1031076908     -3.1031076908
    399.3702392578    240.0000000000     -6.2554326057     -6.2554326057
    419.5801696777    266.6666564941     -0.5098674893     -0.5098674893
    419.6641235352    293.3333435059     -0.2514550090     -0.2514550090
    399.5801696777    293.3333435059     -0.9972550273     -0.9972550273
    399.4752197266    266.6666564941     -3.1031076908     -3.1031076908
    419.6641235352    293.3333435059     -0.2514550090     -0.2514550090
    419.7481079102    320.0000000000     -0.6833024621     -0.6833024621
    399.6851196289    320.0000000000     -1.2906050682     -1.2906050682
    399.5801696777    293.3333435059     -0.9972550273     -0.9972550273
    419.7481079102    320.0000000000     -0.6833024621     -0.6833024621
    419.8320617676    346.6666564941     -1.4612250328     -1.4612250328
    399.7900695801    346.6666564941     -3.5827374458     -3.5827374458
    399.6851196289    320.0000000000     -1.2906050682     -1.2906050682
    419.8320617676    346.6666564941     -1.4612250328     -1.4612250328
    419.9160156250    373.3333435059     -2.0271825790     -2.0271825790
    399.8950500488    373.3333435059     -5.8723874092     -5.8723874092
    399.7900695801    346.6666564941     -3.5827374458     -3.5827374458
    419.9160156250    373.3333435059     -2.0271825790     -2.0271825790
    420.0000000000    400.0000000000     -2.0271825790     -2.0271825790
    400.0000000000    400.0000000000     -5.8723874092     -5.8723874092
    399.8950500488    373.3333435059     -5.8723874092     -5.8723874092
    398.4256286621      0.0000000000      1.0956950188      1.0956950188
    398.5305786133     26.6666698456      1.0956950188      1.0956950188
    378.2366943359     26.6666698456     -2.7654175758     -2.7654175758
    378.1107482910      0.0000000000     -2.7654175758     -2.7654175758
    398.5305786133     26.6666698456      1.0956950188      1.0956950188
    398.6355285645     53.3333282471      0.5112600327      0.5112600327
    378.3626403809     53.3333282471     -1.9872549772     -1.9872549772
    378.2366943359     26.6666698456     -2.7654175758     -2.7654175758
    398.6355285645     53.3333282471      0.5112600327      0.5112600327
    398.7405090332     80.0000000000     -0.7152274847     -0.7152274847
    378.4885864258     80.0000000000     -1.1924400330     -1.1924400330
    378.3626403809     53.3333282471     -1.9872549772     -1.9872549772
    398.7405090332     80.0000000000     -0.7152274847     -0.7152274847
    398.8454589844    106.6666717529     -2.7112801075     -2.7112801075
    378.6145629883    106.6666717529     -1.0436375141     -1.0436375141
    378.4885864258     80.0000000000     -1.1924400330     -1.1924400330
    398.8454589844    106.6666717529     -2.7112801075     -2.7112801075
    398.9504089355    133.3333282471     -5.2722253799     -5.2722253799
    378.7405090332    133.3333282471     -2.2175526619     -2.2175526619
    378.6145629883    106.6666717529     -1.0436375141     -1.0436375141
    398.9504089355    133.3333282471     -5.2722253799     -5.2722253799
    399.0553588867    160.0000000000     -7.7248201370     -7.7248201370
    378.8664550781    160.0000000000     -4.9545774460     -4.9545774460
    378.7405090332    133.3333282471     -2.2175526619     -2.2175526619
    399.0553588867    160.0000000000     -7.7248201370     -7.7248201370
    399.1603393555    186.6666717529     -9.0984020233     -9.0984020233
    378.9924011230    186.6666717529     -8.5876121521     -8.5876121521
    378.8664550781    160.0000000000     -4.9545774460     -4.9545774460
    399.1603393555    186.6666717529     -9.0984020233     -9.0984020233
    399.2652893066    213.3333282471     -8.6144504547     -8.6144504547
    379.1183471680    213.3333282471    -11.4993553162    -11.4993553162
    378.9924011230    186.6666717529     -8.5876121521     -8.5876121521
    399.2652893066    213.3333282471     -8.6144504547     -8.6144504547
    399.3702392578    240.0000000000     -6.2554326057     -6.2554326057
    379.2442932129    240.0000000000    -11.9114360809    -11.9114360809
    379.1183471680    213.3333282471    -11.4993553162    -11.4993553162
    399.3702392578    240.0000000000     -6.2554326057     -6.2554326057
    399.4752197266    266.6666564941     -3.1031076908     -3.1031076908
    379.3702392578    266.6666564941     -9.3563699722     -9.3563699722
    379.2442932129    240.0000000000    -11.9114360809    -11.9114360809
    399.4752197266    266.6666564941     -3.1031076908     -3.1031076908
    399.5801696777    293.3333435059     -0.9972550273     -0.9972550273
    379.4961853027    293.3333435059     -5.5857324600     -5.5857324600
    379.3702392578    266.6666564941     -9.3563699722     -9.3563699722
    399.5801696777    293.3333435059     -0.9972550273     -0.9972550273
    399.6851196289    320.0000000000     -1.2906050682     -1.2906050682
    379.6221618652    320.0000000000     -3.3702924252     -3.3702924252
    379.4961853027    293.3333435059     -5.5857324600     -5.5857324600
    399.6851196289    320.0000000000     -1.2906050682     -1.2906050682
    399.7900695801    346.6666564941     -3.5827374458     -3.5827374458
    379.7481079102    346.6666564941     -3.9719474316     -3.9719474316
    379.6221618652    320.0000000000     -3.3702924252     -3.3702924252
    399.7900695801    346.6666564941     -3.5827374458     -3.5827374458
    399.8950500488    373.3333435059     -5.8723874092     -5.8723874092
    379.8740539551    373.3333435059     -6.0668225288     -6.0668225288
    379.7481079102    346.6666564941     -3.9719474316     -3.9719474316
    399.8950500488    373.3333435059     -5.8723874092     -5.8723874092
    400.0000000000    400.0000000000     -5.8723874092     -5.8723874092
    380.0000000000    400.0000000000     -6.0668225288     -6.0668225288
    379.8740539551    373.3333435059     -6.0668225288     -6.0668225288
    378.1107482910      0.0000000000     -2.7654175758     -2.7654175758
    378.2366943359     26.6666698456     -2.7654175758     -2.7654175758
    357.9428100586     26.6666698456    -14.1032056808    -14.1032056808
    357.7958679199      0.0000000000    -14.1032056808    -14.1032056808
    378.2366943359     26.6666698456     -2.7654175758     -2.7654175758
    378.3626403809     53.3333282471     -1.9872549772     -1.9872549772
    358.0897521973     53.3333282471    -12.7040596008    -12.7040596008
    357.9428100586     26.6666698456    -14.1032056808    -14.1032056808
    378.3626403809     53.3333282471     -1.9872549772     -1.9872549772
    378.4885864258     80.0000000000     -1.1924400330     -1.1924400330
    358.2366943359     80.0000000000    -10.2105903625    -10.2105903625
    358.0897521973     53.3333282471    -12.7040596008    -12.7040596008
    378.4885864258     80.0000000000     -1.1924400330     -1.1924400330
    378.6145629883    106.6666717529     -1.0436375141     -1.0436375141
    358.3836364746    106.6666717529     -6.8475127220     -6.8475127220
    358.2366943359     80.0000000000    -10.2105903625    -10.2105903625
    378.6145629883    106.6666717529     -1.0436375141     -1.0436375141
    378.7405090332    133.3333282471     -2.2175526619     -2.2175526619
    358.5305786133    133.3333282471     -3.5709075928     -3.5709075928
    358.3836364746    106.6666717529     -6.8475127220     -6.8475127220
    378.7405090332    133.3333282471     -2.2175526619     -2.2175526619
    378.8664550781    160.0000000000     -4.9545774460     -4.9545774460
    358.6775207520    160.0000000000     -1.9224851131     -1.9224851131
    358.5305786133    133.3333282471     -3.5709075928     -3.5709075928
    378.8664550781    160.0000000000     -4.9545774460     -4.9545774460
    378.9924011230    186.6666717529     -8.5876121521     -8.5876121521
    358.8244628906    186.6666717529     -3.1267001629     -3.1267001629
    358.6775207520    160.0000000000     -1.9224851131     -1.9224851131
    378.9924011230    186.6666717529     -8.5876121521     -8.5876121521
    379.1183471680    213.3333282471    -11.4993553162    -11.4993553162
    358.9714050293    213.3333282471     -6.9297003746     -6.9297003746
    358.8244628906    186.6666717529     -3.1267001629     -3.1267001629
    379.1183471680    213.3333282471    -11.4993553162    -11.4993553162
    379.2442932129    240.0000000000    -11.9114360809    -11.9114360809
    359.1183471680    240.0000000000    -11.3467025757    -11.3467025757
    358.9714050293    213.3333282471     -6.9297003746     -6.9297003746
    379.2442932129    240.0000000000    -11.9114360809    -11.9114360809
    379.3702392578    266.6666564941     -9.3563699722     -9.3563699722
    359.2652893066    266.6666564941    -13.8129720688    -13.8129720688
    359.1183471680    240.0000000000    -11.3467025757    -11.3467025757
    379.3702392578    266.6666564941     -9.3563699722     -9.3563699722
    379.4961853027    293.3333435059     -5.5857324600     -5.5857324600
    359.4122314453    293.3333435059    -12.9070405960    -12.9070405960
    359.2652893066    266.6666564941    -13.8129720688    -13.8129720688
    379.4961853027    293.3333435059     -5.5857324600     -5.5857324600
    379.6221618652    320.0000000000     -3.3702924252     -3.3702924252
    359.5591735840    320.0000000000     -9.3238201141     -9.3238201141
    359.4122314453    293.3333435059    -12.9070405960    -12.9070405960