 VARIABLES= "X","Y","Z","yita"  
ZONE N=                                        3000 E=                              750 F=FEPOINT, ET=QUADRILATERAL
    500.0000000000      0.0000000000     -0.0830275416     -0.0830275416
    500.0000000000     26.6666698456     -0.0830275416     -0.0830275416
    479.7061157227     26.6666698456     -0.0830275416     -0.0830275416
    479.6851196289      0.0000000000     -0.0830275416     -0.0830275416
    500.0000000000     26.6666698456     -0.0830275416     -0.0830275416
    500.0000000000     53.3333282471     -0.0805124938     -0.0805124938
    479.7271118164     53.3333282471     -0.0805124938     -0.0805124938
    479.7061157227     26.6666698456     -0.0830275416     -0.0830275416
    500.0000000000     53.3333282471     -0.0805124938     -0.0805124938
    500.0000000000     80.0000000000     -0.0922524929     -0.0922524929
    479.7481079102     80.0000000000     -0.0922524929     -0.0922524929
    479.7271118164     53.3333282471     -0.0805124938     -0.0805124938
    500.0000000000     80.0000000000     -0.0922524929     -0.0922524929
    500.0000000000    106.6666717529     -0.1054649949     -0.1054649949
    479.7691040039    106.6666717529     -0.1054649949     -0.1054649949
    479.7481079102     80.0000000000     -0.0922524929     -0.0922524929
    500.0000000000    106.6666717529     -0.1054649949     -0.1054649949
    500.0000000000    133.3333282471     -0.1061875224     -0.1061875224
    479.7900695801    133.3333282471     -0.1061875224     -0.1061875224
    479.7691040039    106.6666717529     -0.1054649949     -0.1054649949
    500.0000000000    133.3333282471     -0.1061875224     -0.1061875224
    500.0000000000    160.0000000000     -0.1067174673     -0.1067174673
    479.8110656738    160.0000000000     -0.1067174673     -0.1067174673
    479.7900695801    133.3333282471     -0.1061875224     -0.1061875224
    500.0000000000    160.0000000000     -0.1067174673     -0.1067174673
    500.0000000000    186.6666717529     -0.1092049479     -0.1092049479
    479.8320617676    186.6666717529     -0.1092049479     -0.1092049479
    479.8110656738    160.0000000000     -0.1067174673     -0.1067174673
    500.0000000000    186.6666717529     -0.1092049479     -0.1092049479
    500.0000000000    213.3333282471     -0.1114049554     -0.1114049554
    479.8530578613    213.3333282471     -0.1114049554     -0.1114049554
    479.8320617676    186.6666717529     -0.1092049479     -0.1092049479
    500.0000000000    213.3333282471     -0.1114049554     -0.1114049554
    500.0000000000    240.0000000000     -0.1003175378     -0.1003175378
    479.8740539551    240.0000000000     -0.1003175378     -0.1003175378
    479.8530578613    213.3333282471     -0.1114049554     -0.1114049554
    500.0000000000    240.0000000000     -0.1003175378     -0.1003175378
    500.0000000000    266.6666564941     -0.0866200328     -0.0866200328
    479.8950500488    266.6666564941     -0.0866200328     -0.0866200328
    479.8740539551    240.0000000000     -0.1003175378     -0.1003175378
    500.0000000000    266.6666564941     -0.0866200328     -0.0866200328
    500.0000000000    293.3333435059     -0.0841850042     -0.0841850042
    479.9160156250    293.3333435059     -0.0841850042     -0.0841850042
    479.8950500488    266.6666564941     -0.0866200328     -0.0866200328
    500.0000000000    293.3333435059     -0.0841850042     -0.0841850042
    500.0000000000    320.0000000000     -0.0817300081     -0.0817300081
    479.9370422363    320.0000000000     -0.0817300081     -0.0817300081
    479.9160156250    293.3333435059     -0.0841850042     -0.0841850042
    500.0000000000    320.0000000000     -0.0817300081     -0.0817300081
    500.0000000000    346.6666564941     -0.0797874629     -0.0797874629
    479.9580078125    346.6666564941     -0.0797874629     -0.0797874629
    479.9370422363    320.0000000000     -0.0817300081     -0.0817300081
    500.0000000000    346.6666564941     -0.0797874629     -0.0797874629
    500.0000000000    373.3333435059     -0.0796799958     -0.0796799958
    479.9790039062    373.3333435059     -0.0796799958     -0.0796799958
    479.9580078125    346.6666564941     -0.0797874629     -0.0797874629
    500.0000000000    373.3333435059     -0.0796799958     -0.0796799958
    500.0000000000    400.0000000000     -0.0796799958     -0.0796799958
    480.0000000000    400.0000000000     -0.0796799958     -0.0796799958
    479.9790039062    373.3333435059     -0.0796799958     -0.0796799958
    479.6851196289      0.0000000000     -0.0830275416     -0.0830275416
    479.7061157227     26.6666698456     -0.0830275416     -0.0830275416
    459.4122314453     26.6666698456     -3.0647349358     -3.0647349358
    459.3702392578      0.0000000000     -3.0647349358     -3.0647349358
    479.7061157227     26.6666698456     -0.0830275416     -0.0830275416
    479.7271118164     53.3333282471     -0.0805124938     -0.0805124938
    459.4542236328     53.3333282471     -3.0713150501     -3.0713150501
    459.4122314453     26.6666698456     -3.0647349358     -3.0647349358
    479.7271118164     53.3333282471     -0.0805124938     -0.0805124938
    479.7481079102     80.0000000000     -0.0922524929     -0.0922524929
    459.4961853027     80.0000000000     -3.0795102119     -3.0795102119
    459.4542236328     53.3333282471     -3.0713150501     -3.0713150501
    479.7481079102     80.0000000000     -0.0922524929     -0.0922524929
    479.7691040039    106.6666717529     -0.1054649949     -0.1054649949
    459.5381774902    106.6666717529     -3.0845751762     -3.0845751762
    459.4961853027     80.0000000000     -3.0795102119     -3.0795102119
    479.7691040039    106.6666717529     -0.1054649949     -0.1054649949
    479.7900695801    133.3333282471     -0.1061875224     -0.1061875224
    459.5801696777    133.3333282471     -3.0845999718     -3.0845999718
    459.5381774902    106.6666717529     -3.0845751762     -3.0845751762
    479.7900695801    133.3333282471     -0.1061875224     -0.1061875224
    479.8110656738    160.0000000000     -0.1067174673     -0.1067174673
    459.6221618652    160.0000000000     -3.0781574249     -3.0781574249
    459.5801696777    133.3333282471     -3.0845999718     -3.0845999718
    479.8110656738    160.0000000000     -0.1067174673     -0.1067174673
    479.8320617676    186.6666717529     -0.1092049479     -0.1092049479
    459.6641235352    186.6666717529     -3.0609250069     -3.0609250069
    459.6221618652    160.0000000000     -3.0781574249     -3.0781574249
    479.8320617676    186.6666717529     -0.1092049479     -0.1092049479
    479.8530578613    213.3333282471     -0.1114049554     -0.1114049554
    459.7061157227    213.3333282471     -3.0304350853     -3.0304350853
    459.6641235352    186.6666717529     -3.0609250069     -3.0609250069
    479.8530578613    213.3333282471     -0.1114049554     -0.1114049554
    479.8740539551    240.0000000000     -0.1003175378     -0.1003175378
    459.7481079102    240.0000000000     -2.9936676025     -2.9936676025
    459.7061157227    213.3333282471     -3.0304350853     -3.0304350853
    479.8740539551    240.0000000000     -0.1003175378     -0.1003175378
    479.8950500488    266.6666564941     -0.0866200328     -0.0866200328
    459.7900695801    266.6666564941     -2.9665100574     -2.9665100574
    459.7481079102    240.0000000000     -2.9936676025     -2.9936676025
    479.8950500488    266.6666564941     -0.0866200328     -0.0866200328
    479.9160156250    293.3333435059     -0.0841850042     -0.0841850042
    459.8320617676    293.3333435059     -2.9628024101     -2.9628024101
    459.7900695801    266.6666564941     -2.9665100574     -2.9665100574
    479.9160156250    293.3333435059     -0.0841850042     -0.0841850042
    479.9370422363    320.0000000000     -0.0817300081     -0.0817300081
    459.8740539551    320.0000000000     -2.9819750786     -2.9819750786
    459.8320617676    293.3333435059     -2.9628024101     -2.9628024101
    479.9370422363    320.0000000000     -0.0817300081     -0.0817300081
    479.9580078125    346.6666564941     -0.0797874629     -0.0797874629
    459.9160156250    346.6666564941     -3.0080325603     -3.0080325603
    459.8740539551    320.0000000000     -2.9819750786     -2.9819750786
    479.9580078125    346.6666564941     -0.0797874629     -0.0797874629
    479.9790039062    373.3333435059     -0.0796799958     -0.0796799958
    459.9580078125    373.3333435059     -3.0245850086     -3.0245850086
    459.9160156250    346.6666564941     -3.0080325603     -3.0080325603
    479.9790039062    373.3333435059     -0.0796799958     -0.0796799958
    480.0000000000    400.0000000000     -0.0796799958     -0.0796799958
    460.0000000000    400.0000000000     -3.0245850086     -3.0245850086
    459.9580078125    373.3333435059     -3.0245850086     -3.0245850086
    459.3702392578      0.0000000000     -3.0647349358     -3.0647349358
    459.4122314453     26.6666698456     -3.0647349358     -3.0647349358
    439.1183471680     26.6666698456     -5.6521773338     -5.6521773338
    439.0553588867      0.0000000000     -5.6521773338     -5.6521773338
    459.4122314453     26.6666698456     -3.0647349358     -3.0647349358
    459.4542236328     53.3333282471     -3.0713150501     -3.0713150501
    439.1813049316     53.3333282471     -5.6019897461     -5.6019897461
    439.1183471680     26.6666698456     -5.6521773338     -5.6521773338
    459.4542236328     53.3333282471     -3.0713150501     -3.0713150501
    459.4961853027     80.0000000000     -3.0795102119     -3.0795102119
    439.2442932129     80.0000000000     -5.5669250488     -5.5669250488
    439.1813049316     53.3333282471     -5.6019897461     -5.6019897461
    459.4961853027     80.0000000000     -3.0795102119     -3.0795102119
    459.5381774902    106.6666717529     -3.0845751762     -3.0845751762
    439.3072814941    106.6666717529     -5.5651054382     -5.5651054382
    439.2442932129     80.0000000000     -5.5669250488     -5.5669250488
    459.5381774902    106.6666717529     -3.0845751762     -3.0845751762
    459.5801696777    133.3333282471     -3.0845999718     -3.0845999718
    439.3702392578    133.3333282471     -5.5865225792     -5.5865225792
    439.3072814941    106.6666717529     -5.5651054382     -5.5651054382
    459.5801696777    133.3333282471     -3.0845999718     -3.0845999718
    459.6221618652    160.0000000000     -3.0781574249     -3.0781574249
    439.4332275391    160.0000000000     -5.6147074699     -5.6147074699
    439.3702392578    133.3333282471     -5.5865225792     -5.5865225792
    459.6221618652    160.0000000000     -3.0781574249     -3.0781574249
    459.6641235352    186.6666717529     -3.0609250069     -3.0609250069
    439.4961853027    186.6666717529     -5.6478128433     -5.6478128433
    439.4332275391    160.0000000000     -5.6147074699     -5.6147074699
    459.6641235352    186.6666717529     -3.0609250069     -3.0609250069
    459.7061157227    213.3333282471     -3.0304350853     -3.0304350853
    439.5591735840    213.3333282471     -5.6928024292     -5.6928024292
    439.4961853027    186.6666717529     -5.6478128433     -5.6478128433
    459.7061157227    213.3333282471     -3.0304350853     -3.0304350853
    459.7481079102    240.0000000000     -2.9936676025     -2.9936676025
    439.6221618652    240.0000000000     -5.7418675423     -5.7418675423
    439.5591735840    213.3333282471     -5.6928024292     -5.6928024292
    459.7481079102    240.0000000000     -2.9936676025     -2.9936676025
    459.7900695801    266.6666564941     -2.9665100574     -2.9665100574
    439.6851196289    266.6666564941     -5.7649402618     -5.7649402618
    439.6221618652    240.0000000000     -5.7418675423     -5.7418675423
    459.7900695801    266.6666564941     -2.9665100574     -2.9665100574
    459.8320617676    293.3333435059     -2.9628024101     -2.9628024101
    439.7481079102    293.3333435059     -5.7338075638     -5.7338075638
    439.6851196289    266.6666564941     -5.7649402618     -5.7649402618
    459.8320617676    293.3333435059     -2.9628024101     -2.9628024101
    459.8740539551    320.0000000000     -2.9819750786     -2.9819750786
    439.8110656738    320.0000000000     -5.6540002823     -5.6540002823
    439.7481079102    293.3333435059     -5.7338075638     -5.7338075638
    459.8740539551    320.0000000000     -2.9819750786     -2.9819750786
    459.9160156250    346.6666564941     -3.0080325603     -3.0080325603
    439.8740539551    346.6666564941     -5.5677051544     -5.5677051544
    439.8110656738    320.0000000000     -5.6540002823     -5.6540002823
    459.9160156250    346.6666564941     -3.0080325603     -3.0080325603
    459.9580078125    373.3333435059     -3.0245850086     -3.0245850086
    439.9370422363    373.3333435059     -5.5210399628     -5.5210399628
    439.8740539551    346.6666564941     -5.5677051544     -5.5677051544
    459.9580078125    373.3333435059     -3.0245850086     -3.0245850086
    460.0000000000    400.0000000000     -3.0245850086     -3.0245850086
    440.0000000000    400.0000000000     -5.5210399628     -5.5210399628
    439.9370422363    373.3333435059     -5.5210399628     -5.5210399628
    439.0553588867      0.0000000000     -5.6521773338     -5.6521773338
    439.1183471680     26.6666698456     -5.6521773338     -5.6521773338
    418.8244628906     26.6666698456     -8.3188924789     -8.3188924789
    418.7405090332      0.0000000000     -8.3188924789     -8.3188924789
    439.1183471680     26.6666698456     -5.6521773338     -5.6521773338
    439.1813049316     53.3333282471     -5.6019897461     -5.6019897461
    418.9084167480     53.3333282471     -8.8706245422     -8.8706245422
    418.8244628906     26.6666698456     -8.3188924789     -8.3188924789
    439.1813049316     53.3333282471     -5.6019897461     -5.6019897461
    439.2442932129     80.0000000000     -5.5669250488     -5.5669250488
    418.9924011230     80.0000000000     -9.3264617920     -9.3264617920
    418.9084167480     53.3333282471     -8.8706245422     -8.8706245422
    439.2442932129     80.0000000000     -5.5669250488     -5.5669250488
    439.3072814941    106.6666717529     -5.5651054382     -5.5651054382
    419.0763549805    106.6666717529     -9.4973249435     -9.4973249435
    418.9924011230     80.0000000000     -9.3264617920     -9.3264617920
    439.3072814941    106.6666717529     -5.5651054382     -5.5651054382
    439.3702392578    133.3333282471     -5.5865225792     -5.5865225792
    419.1603393555    133.3333282471     -9.4574966431     -9.4574966431
    419.0763549805    106.6666717529     -9.4973249435     -9.4973249435
    439.3702392578    133.3333282471     -5.5865225792     -5.5865225792
    439.4332275391    160.0000000000     -5.6147074699     -5.6147074699
    419.2442932129    160.0000000000     -9.2691230774     -9.2691230774
    419.1603393555    133.3333282471     -9.4574966431     -9.4574966431
    439.4332275391    160.0000000000     -5.6147074699     -5.6147074699
    439.4961853027    186.6666717529     -5.6478128433     -5.6478128433
    419.3282775879    186.6666717529     -8.7923545837     -8.7923545837
    419.2442932129    160.0000000000     -9.2691230774     -9.2691230774
    439.4961853027    186.6666717529     -5.6478128433     -5.6478128433
    439.5591735840    213.3333282471     -5.6928024292     -5.6928024292
    419.4122314453    213.3333282471     -7.8800573349     -7.8800573349
    419.3282775879    186.6666717529     -8.7923545837     -8.7923545837
    439.5591735840    213.3333282471     -5.6928024292     -5.6928024292
    439.6221618652    240.0000000000     -5.7418675423     -5.7418675423
    419.4961853027    240.0000000000     -6.7423300743     -6.7423300743
    419.4122314453    213.3333282471     -7.8800573349     -7.8800573349
    439.6221618652    240.0000000000     -5.7418675423     -5.7418675423
    439.6851196289    266.6666564941     -5.7649402618     -5.7649402618
    419.5801696777    266.6666564941     -5.9865651131     -5.9865651131
    419.4961853027    240.0000000000     -6.7423300743     -6.7423300743
    439.6851196289    266.6666564941     -5.7649402618     -5.7649402618
    439.7481079102    293.3333435059     -5.7338075638     -5.7338075638
    419.6641235352    293.3333435059     -6.1720705032     -6.1720705032
    419.5801696777    266.6666564941     -5.9865651131     -5.9865651131
    439.7481079102    293.3333435059     -5.7338075638     -5.7338075638
    439.8110656738    320.0000000000     -5.6540002823     -5.6540002823
    419.7481079102    320.0000000000     -7.2765226364     -7.2765226364
    419.6641235352    293.3333435059     -6.1720705032     -6.1720705032
    439.8110656738    320.0000000000     -5.6540002823     -5.6540002823
    439.8740539551    346.6666564941     -5.5677051544     -5.5677051544
    419.8320617676    346.6666564941     -8.6091728210     -8.6091728210
    419.7481079102    320.0000000000     -7.2765226364     -7.2765226364
    439.8740539551    346.6666564941     -5.5677051544     -5.5677051544
    439.9370422363    373.3333435059     -5.5210399628     -5.5210399628
    419.9160156250    373.3333435059     -9.3060798645     -9.3060798645
    419.8320617676    346.6666564941     -8.6091728210     -8.6091728210
    439.9370422363    373.3333435059     -5.5210399628     -5.5210399628
    440.0000000000    400.0000000000     -5.5210399628     -5.5210399628
    420.0000000000    400.0000000000     -9.3060798645     -9.3060798645
    419.9160156250    373.3333435059     -9.3060798645     -9.3060798645
    418.7405090332      0.0000000000     -8.3188924789     -8.3188924789
    418.8244628906     26.6666698456     -8.3188924789     -8.3188924789
    398.5305786133     26.6666698456     -7.3754425049     -7.3754425049
    398.4256286621      0.0000000000     -7.3754425049     -7.3754425049
    418.8244628906     26.6666698456     -8.3188924789     -8.3188924789
    418.9084167480     53.3333282471     -8.8706245422     -8.8706245422
    398.6355285645     53.3333282471     -8.4621448517     -8.4621448517
    398.5305786133     26.6666698456     -7.3754425049     -7.3754425049
    418.9084167480     53.3333282471     -8.8706245422     -8.8706245422
    418.9924011230     80.0000000000     -9.3264617920     -9.3264617920
    398.7405090332     80.0000000000     -9.6411352158     -9.6411352158
    398.6355285645     53.3333282471     -8.4621448517     -8.4621448517
    418.9924011230     80.0000000000     -9.3264617920     -9.3264617920
    419.0763549805    106.6666717529     -9.4973249435     -9.4973249435
    398.8454589844    106.6666717529    -11.0056533813    -11.0056533813
    398.7405090332     80.0000000000     -9.6411352158     -9.6411352158
    419.0763549805    106.6666717529     -9.4973249435     -9.4973249435
    419.1603393555    133.3333282471     -9.4574966431     -9.4574966431
    398.9504089355    133.3333282471    -12.9001379013    -12.9001379013
    398.8454589844    106.6666717529    -11.0056533813    -11.0056533813
    419.1603393555    133.3333282471     -9.4574966431     -9.4574966431
    419.2442932129    160.0000000000     -9.2691230774     -9.2691230774
    399.0553588867    160.0000000000    -14.7586822510    -14.7586822510
    398.9504089355    133.3333282471    -12.9001379013    -12.9001379013
    419.2442932129    160.0000000000     -9.2691230774     -9.2691230774
    419.3282775879    186.6666717529     -8.7923545837     -8.7923545837
    399.1603393555    186.6666717529    -14.9037284851    -14.9037284851
    399.0553588867    160.0000000000    -14.7586822510    -14.7586822510
    419.3282775879    186.6666717529     -8.7923545837     -8.7923545837
    419.4122314453    213.3333282471     -7.8800573349     -7.8800573349
    399.2652893066    213.3333282471    -12.0713300705    -12.0713300705
    399.1603393555    186.6666717529    -14.9037284851    -14.9037284851
    419.4122314453    213.3333282471     -7.8800573349     -7.8800573349
    419.4961853027    240.0000000000     -6.7423300743     -6.7423300743
    399.3702392578    240.0000000000     -7.1277499199     -7.1277499199
    399.2652893066    213.3333282471    -12.0713300705    -12.0713300705
    419.4961853027    240.0000000000     -6.7423300743     -6.7423300743
    419.5801696777    266.6666564941     -5.9865651131     -5.9865651131
    399.4752197266    266.6666564941     -2.9676551819     -2.9676551819
    399.3702392578    240.0000000000     -7.1277499199     -7.1277499199
    419.5801696777    266.6666564941     -5.9865651131     -5.9865651131
    419.6641235352    293.3333435059     -6.1720705032     -6.1720705032
    399.5801696777    293.3333435059     -2.4389975071     -2.4389975071
    399.4752197266    266.6666564941     -2.9676551819     -2.9676551819
    419.6641235352    293.3333435059     -6.1720705032     -6.1720705032
    419.7481079102    320.0000000000     -7.2765226364     -7.2765226364
    399.6851196289    320.0000000000     -6.0524125099     -6.0524125099
    399.5801696777    293.3333435059     -2.4389975071     -2.4389975071
    419.7481079102    320.0000000000     -7.2765226364     -7.2765226364
    419.8320617676    346.6666564941     -8.6091728210     -8.6091728210
    399.7900695801    346.6666564941    -11.4177427292    -11.4177427292
    399.6851196289    320.0000000000     -6.0524125099     -6.0524125099
    419.8320617676    346.6666564941     -8.6091728210     -8.6091728210
    419.9160156250    373.3333435059     -9.3060798645     -9.3060798645
    399.8950500488    373.3333435059    -14.9160747528    -14.9160747528
    399.7900695801    346.6666564941    -11.4177427292    -11.4177427292
    419.9160156250    373.3333435059     -9.3060798645     -9.3060798645
    420.0000000000    400.0000000000     -9.3060798645     -9.3060798645
    400.0000000000    400.0000000000    -14.9160747528    -14.9160747528
    399.8950500488    373.3333435059    -14.9160747528    -14.9160747528
    398.4256286621      0.0000000000     -7.3754425049     -7.3754425049
    398.5305786133     26.6666698456     -7.3754425049     -7.3754425049
    378.2366943359     26.6666698456     -4.2561073303     -4.2561073303
    378.1107482910      0.0000000000     -4.2561073303     -4.2561073303
    398.5305786133     26.6666698456     -7.3754425049     -7.3754425049
    398.6355285645     53.3333282471     -8.4621448517     -8.4621448517
    378.3626403809     53.3333282471     -2.8260774612     -2.8260774612
    378.2366943359     26.6666698456     -4.2561073303     -4.2561073303
    398.6355285645     53.3333282471     -8.4621448517     -8.4621448517
    398.7405090332     80.0000000000     -9.6411352158     -9.6411352158
    378.4885864258     80.0000000000     -2.2581977844     -2.2581977844
    378.3626403809     53.3333282471     -2.8260774612     -2.8260774612
    398.7405090332     80.0000000000     -9.6411352158     -9.6411352158
    398.8454589844    106.6666717529    -11.0056533813    -11.0056533813
    378.6145629883    106.6666717529     -4.2040772438     -4.2040772438
    378.4885864258     80.0000000000     -2.2581977844     -2.2581977844
    398.8454589844    106.6666717529    -11.0056533813    -11.0056533813
    398.9504089355    133.3333282471    -12.9001379013    -12.9001379013
    378.7405090332    133.3333282471     -8.9925622940     -8.9925622940
    378.6145629883    106.6666717529     -4.2040772438     -4.2040772438
    398.9504089355    133.3333282471    -12.9001379013    -12.9001379013
    399.0553588867    160.0000000000    -14.7586822510    -14.7586822510
    378.8664550781    160.0000000000    -14.5985622406    -14.5985622406
    378.7405090332    133.3333282471     -8.9925622940     -8.9925622940
    399.0553588867    160.0000000000    -14.7586822510    -14.7586822510
    399.1603393555    186.6666717529    -14.9037284851    -14.9037284851
    378.9924011230    186.6666717529    -17.5806674957    -17.5806674957
    378.8664550781    160.0000000000    -14.5985622406    -14.5985622406
    399.1603393555    186.6666717529    -14.9037284851    -14.9037284851
    399.2652893066    213.3333282471    -12.0713300705    -12.0713300705
    379.1183471680    213.3333282471    -15.7766847610    -15.7766847610
    378.9924011230    186.6666717529    -17.5806674957    -17.5806674957
    399.2652893066    213.3333282471    -12.0713300705    -12.0713300705
    399.3702392578    240.0000000000     -7.1277499199     -7.1277499199
    379.2442932129    240.0000000000    -10.2088575363    -10.2088575363
    379.1183471680    213.3333282471    -15.7766847610    -15.7766847610
    399.3702392578    240.0000000000     -7.1277499199     -7.1277499199
    399.4752197266    266.6666564941     -2.9676551819     -2.9676551819
    379.3702392578    266.6666564941     -4.4254627228     -4.4254627228
    379.2442932129    240.0000000000    -10.2088575363    -10.2088575363
    399.4752197266    266.6666564941     -2.9676551819     -2.9676551819
    399.5801696777    293.3333435059     -2.4389975071     -2.4389975071
    379.4961853027    293.3333435059     -2.0454349518     -2.0454349518
    379.3702392578    266.6666564941     -4.4254627228     -4.4254627228
    399.5801696777    293.3333435059     -2.4389975071     -2.4389975071
    399.6851196289    320.0000000000     -6.0524125099     -6.0524125099
    379.6221618652    320.0000000000     -4.4038801193     -4.4038801193
    379.4961853027    293.3333435059     -2.0454349518     -2.0454349518
    399.6851196289    320.0000000000     -6.0524125099     -6.0524125099
    399.7900695801    346.6666564941    -11.4177427292    -11.4177427292
    379.7481079102    346.6666564941     -9.7256021500     -9.7256021500
    379.6221618652    320.0000000000     -4.4038801193     -4.4038801193
    399.7900695801    346.6666564941    -11.4177427292    -11.4177427292
    399.8950500488    373.3333435059    -14.9160747528    -14.9160747528
    379.8740539551    373.3333435059    -14.2476720810    -14.2476720810
    379.7481079102    346.6666564941     -9.7256021500     -9.7256021500
    399.8950500488    373.3333435059    -14.9160747528    -14.9160747528
    400.0000000000    400.0000000000    -14.9160747528    -14.9160747528
    380.0000000000    400.0000000000    -14.2476720810    -14.2476720810
    379.8740539551    373.3333435059    -14.2476720810    -14.2476720810
    378.1107482910      0.0000000000     -4.2561073303     -4.2561073303
    378.2366943359     26.6666698456     -4.2561073303     -4.2561073303
    357.9428100586     26.6666698456     -9.5824575424     -9.5824575424
    357.7958679199      0.0000000000     -9.5824575424     -9.5824575424
    378.2366943359     26.6666698456     -4.2561073303     -4.2561073303
    378.3626403809     53.3333282471     -2.8260774612     -2.8260774612
    358.0897521973     53.3333282471     -4.8999447823     -4.8999447823
    357.9428100586     26.6666698456     -9.5824575424     -9.5824575424
    378.3626403809     53.3333282471     -2.8260774612     -2.8260774612
    378.4885864258     80.0000000000     -2.2581977844     -2.2581977844
    358.2366943359     80.0000000000     -1.4866299629     -1.4866299629
    358.0897521973     53.3333282471     -4.8999447823     -4.8999447823
    378.4885864258     80.0000000000     -2.2581977844     -2.2581977844
    378.6145629883    106.6666717529     -4.2040772438     -4.2040772438
    358.3836364746    106.6666717529     -1.4463524818     -1.4463524818
    358.2366943359     80.0000000000     -1.4866299629     -1.4866299629
    378.6145629883    106.6666717529     -4.2040772438     -4.2040772438
    378.7405090332    133.3333282471     -8.9925622940     -8.9925622940
    358.5305786133    133.3333282471     -3.9449253082     -3.9449253082
    358.3836364746    106.6666717529     -1.4463524818     -1.4463524818
    378.7405090332    133.3333282471     -8.9925622940     -8.9925622940
    378.8664550781    160.0000000000    -14.5985622406    -14.5985622406
    358.6775207520    160.0000000000     -6.7833380699     -6.7833380699
    358.5305786133    133.3333282471     -3.9449253082     -3.9449253082
    378.8664550781    160.0000000000    -14.5985622406    -14.5985622406
    378.9924011230    186.6666717529    -17.5806674957    -17.5806674957
    358.8244628906    186.6666717529     -8.7410268784     -8.7410268784
    358.6775207520    160.0000000000     -6.7833380699     -6.7833380699
    378.9924011230    186.6666717529    -17.5806674957    -17.5806674957
    379.1183471680    213.3333282471    -15.7766847610    -15.7766847610
    358.9714050293    213.3333282471    -10.1429195404    -10.1429195404
    358.8244628906    186.6666717529     -8.7410268784     -8.7410268784
    379.1183471680    213.3333282471    -15.7766847610    -15.7766847610
    379.2442932129    240.0000000000    -10.2088575363    -10.2088575363
    359.1183471680    240.0000000000    -11.4208650589    -11.4208650589
    358.9714050293    213.3333282471    -10.1429195404    -10.1429195404
    379.2442932129    240.0000000000    -10.2088575363    -10.2088575363
    379.3702392578    266.6666564941     -4.4254627228     -4.4254627228
    359.2652893066    266.6666564941    -11.8823976517    -11.8823976517
    359.1183471680    240.0000000000    -11.4208650589    -11.4208650589
    379.3702392578    266.6666564941     -4.4254627228     -4.4254627228
    379.4961853027    293.3333435059     -2.0454349518     -2.0454349518
    359.4122314453    293.3333435059    -10.4382629395    -10.4382629395
    359.2652893066    266.6666564941    -11.8823976517    -11.8823976517
    379.4961853027    293.3333435059     -2.0454349518     -2.0454349518
    379.6221618652    320.0000000000     -4.4038801193     -4.4038801193
    359.5591735840    320.0000000000     -7.3259897232     -7.3259897232
    359.4122314453    293.3333435059    -10.4382629395    -10.4382629395