 VARIABLES= "X","Y","Z","yita"  
ZONE N=                                        3000 E=                              750 F=FEPOINT, ET=QUADRILATERAL
    500.0000000000      0.0000000000     -8.9074172974     -8.9074172974
    500.0000000000     26.6666698456     -8.9074172974     -8.9074172974
    479.7061157227     26.6666698456     -8.9074172974     -8.9074172974
    479.6851196289      0.0000000000     -8.9074172974     -8.9074172974
    500.0000000000     26.6666698456     -8.9074172974     -8.9074172974
    500.0000000000     53.3333282471     -8.9085397720     -8.9085397720
    479.7271118164     53.3333282471     -8.9085397720     -8.9085397720
    479.7061157227     26.6666698456     -8.9074172974     -8.9074172974
    500.0000000000     53.3333282471     -8.9085397720     -8.9085397720
    500.0000000000     80.0000000000     -8.8988370895     -8.8988370895
    479.7481079102     80.0000000000     -8.8988370895     -8.8988370895
    479.7271118164     53.3333282471     -8.9085397720     -8.9085397720
    500.0000000000     80.0000000000     -8.8988370895     -8.8988370895
    500.0000000000    106.6666717529     -8.8910627365     -8.8910627365
    479.7691040039    106.6666717529     -8.8910627365     -8.8910627365
    479.7481079102     80.0000000000     -8.8988370895     -8.8988370895
    500.0000000000    106.6666717529     -8.8910627365     -8.8910627365
    500.0000000000    133.3333282471     -8.8947410583     -8.8947410583
    479.7900695801    133.3333282471     -8.8947410583     -8.8947410583
    479.7691040039    106.6666717529     -8.8910627365     -8.8910627365
    500.0000000000    133.3333282471     -8.8947410583     -8.8947410583
    500.0000000000    160.0000000000     -8.8753499985     -8.8753499985
    479.8110656738    160.0000000000     -8.8753499985     -8.8753499985
    479.7900695801    133.3333282471     -8.8947410583     -8.8947410583
    500.0000000000    160.0000000000     -8.8753499985     -8.8753499985
    500.0000000000    186.6666717529     -8.8542671204     -8.8542671204
    479.8320617676    186.6666717529     -8.8542671204     -8.8542671204
    479.8110656738    160.0000000000     -8.8753499985     -8.8753499985
    500.0000000000    186.6666717529     -8.8542671204     -8.8542671204
    500.0000000000    213.3333282471     -8.8545970917     -8.8545970917
    479.8530578613    213.3333282471     -8.8545970917     -8.8545970917
    479.8320617676    186.6666717529     -8.8542671204     -8.8542671204
    500.0000000000    213.3333282471     -8.8545970917     -8.8545970917
    500.0000000000    240.0000000000     -8.8456153870     -8.8456153870
    479.8740539551    240.0000000000     -8.8456153870     -8.8456153870
    479.8530578613    213.3333282471     -8.8545970917     -8.8545970917
    500.0000000000    240.0000000000     -8.8456153870     -8.8456153870
    500.0000000000    266.6666564941     -8.8342227936     -8.8342227936
    479.8950500488    266.6666564941     -8.8342227936     -8.8342227936
    479.8740539551    240.0000000000     -8.8456153870     -8.8456153870
    500.0000000000    266.6666564941     -8.8342227936     -8.8342227936
    500.0000000000    293.3333435059     -8.8316774368     -8.8316774368
    479.9160156250    293.3333435059     -8.8316774368     -8.8316774368
    479.8950500488    266.6666564941     -8.8342227936     -8.8342227936
    500.0000000000    293.3333435059     -8.8316774368     -8.8316774368
    500.0000000000    320.0000000000     -8.8284492493     -8.8284492493
    479.9370422363    320.0000000000     -8.8284492493     -8.8284492493
    479.9160156250    293.3333435059     -8.8316774368     -8.8316774368
    500.0000000000    320.0000000000     -8.8284492493     -8.8284492493
    500.0000000000    346.6666564941     -8.8300094604     -8.8300094604
    479.9580078125    346.6666564941     -8.8300094604     -8.8300094604
    479.9370422363    320.0000000000     -8.8284492493     -8.8284492493
    500.0000000000    346.6666564941     -8.8300094604     -8.8300094604
    500.0000000000    373.3333435059     -8.8307094574     -8.8307094574
    479.9790039062    373.3333435059     -8.8307094574     -8.8307094574
    479.9580078125    346.6666564941     -8.8300094604     -8.8300094604
    500.0000000000    373.3333435059     -8.8307094574     -8.8307094574
    500.0000000000    400.0000000000     -8.8307094574     -8.8307094574
    480.0000000000    400.0000000000     -8.8307094574     -8.8307094574
    479.9790039062    373.3333435059     -8.8307094574     -8.8307094574
    479.6851196289      0.0000000000     -8.9074172974     -8.9074172974
    479.7061157227     26.6666698456     -8.9074172974     -8.9074172974
    459.4122314453     26.6666698456     -9.3017930984     -9.3017930984
    459.3702392578      0.0000000000     -9.3017930984     -9.3017930984
    479.7061157227     26.6666698456     -8.9074172974     -8.9074172974
    479.7271118164     53.3333282471     -8.9085397720     -8.9085397720
    459.4542236328     53.3333282471     -9.3023948669     -9.3023948669
    459.4122314453     26.6666698456     -9.3017930984     -9.3017930984
    479.7271118164     53.3333282471     -8.9085397720     -8.9085397720
    479.7481079102     80.0000000000     -8.8988370895     -8.8988370895
    459.4961853027     80.0000000000     -9.2980203629     -9.2980203629
    459.4542236328     53.3333282471     -9.3023948669     -9.3023948669
    479.7481079102     80.0000000000     -8.8988370895     -8.8988370895
    479.7691040039    106.6666717529     -8.8910627365     -8.8910627365
    459.5381774902    106.6666717529     -9.2839050293     -9.2839050293
    459.4961853027     80.0000000000     -9.2980203629     -9.2980203629
    479.7691040039    106.6666717529     -8.8910627365     -8.8910627365
    479.7900695801    133.3333282471     -8.8947410583     -8.8947410583
    459.5801696777    133.3333282471     -9.2585372925     -9.2585372925
    459.5381774902    106.6666717529     -9.2839050293     -9.2839050293
    479.7900695801    133.3333282471     -8.8947410583     -8.8947410583
    479.8110656738    160.0000000000     -8.8753499985     -8.8753499985
    459.6221618652    160.0000000000     -9.2272500992     -9.2272500992
    459.5801696777    133.3333282471     -9.2585372925     -9.2585372925
    479.8110656738    160.0000000000     -8.8753499985     -8.8753499985
    479.8320617676    186.6666717529     -8.8542671204     -8.8542671204
    459.6641235352    186.6666717529     -9.2029352188     -9.2029352188
    459.6221618652    160.0000000000     -9.2272500992     -9.2272500992
    479.8320617676    186.6666717529     -8.8542671204     -8.8542671204
    479.8530578613    213.3333282471     -8.8545970917     -8.8545970917
    459.7061157227    213.3333282471     -9.1965169907     -9.1965169907
    459.6641235352    186.6666717529     -9.2029352188     -9.2029352188
    479.8530578613    213.3333282471     -8.8545970917     -8.8545970917
    479.8740539551    240.0000000000     -8.8456153870     -8.8456153870
    459.7481079102    240.0000000000     -9.2077922821     -9.2077922821
    459.7061157227    213.3333282471     -9.1965169907     -9.1965169907
    479.8740539551    240.0000000000     -8.8456153870     -8.8456153870
    479.8950500488    266.6666564941     -8.8342227936     -8.8342227936
    459.7900695801    266.6666564941     -9.2281074524     -9.2281074524
    459.7481079102    240.0000000000     -9.2077922821     -9.2077922821
    479.8950500488    266.6666564941     -8.8342227936     -8.8342227936
    479.9160156250    293.3333435059     -8.8316774368     -8.8316774368
    459.8320617676    293.3333435059     -9.2460927963     -9.2460927963
    459.7900695801    266.6666564941     -9.2281074524     -9.2281074524
    479.9160156250    293.3333435059     -8.8316774368     -8.8316774368
    479.9370422363    320.0000000000     -8.8284492493     -8.8284492493
    459.8740539551    320.0000000000     -9.2531423569     -9.2531423569
    459.8320617676    293.3333435059     -9.2460927963     -9.2460927963
    479.9370422363    320.0000000000     -8.8284492493     -8.8284492493
    479.9580078125    346.6666564941     -8.8300094604     -8.8300094604
    459.9160156250    346.6666564941     -9.2481975555     -9.2481975555
    459.8740539551    320.0000000000     -9.2531423569     -9.2531423569
    479.9580078125    346.6666564941     -8.8300094604     -8.8300094604
    479.9790039062    373.3333435059     -8.8307094574     -8.8307094574
    459.9580078125    373.3333435059     -9.2318344116     -9.2318344116
    459.9160156250    346.6666564941     -9.2481975555     -9.2481975555
    479.9790039062    373.3333435059     -8.8307094574     -8.8307094574
    480.0000000000    400.0000000000     -8.8307094574     -8.8307094574
    460.0000000000    400.0000000000     -9.2318344116     -9.2318344116
    459.9580078125    373.3333435059     -9.2318344116     -9.2318344116
    459.3702392578      0.0000000000     -9.3017930984     -9.3017930984
    459.4122314453     26.6666698456     -9.3017930984     -9.3017930984
    439.1183471680     26.6666698456     -8.4936752319     -8.4936752319
    439.0553588867      0.0000000000     -8.4936752319     -8.4936752319
    459.4122314453     26.6666698456     -9.3017930984     -9.3017930984
    459.4542236328     53.3333282471     -9.3023948669     -9.3023948669
    439.1813049316     53.3333282471     -8.5005626678     -8.5005626678
    439.1183471680     26.6666698456     -8.4936752319     -8.4936752319
    459.4542236328     53.3333282471     -9.3023948669     -9.3023948669
    459.4961853027     80.0000000000     -9.2980203629     -9.2980203629
    439.2442932129     80.0000000000     -8.5178203583     -8.5178203583
    439.1813049316     53.3333282471     -8.5005626678     -8.5005626678
    459.4961853027     80.0000000000     -9.2980203629     -9.2980203629
    459.5381774902    106.6666717529     -9.2839050293     -9.2839050293
    439.3072814941    106.6666717529     -8.5638799667     -8.5638799667
    439.2442932129     80.0000000000     -8.5178203583     -8.5178203583
    459.5381774902    106.6666717529     -9.2839050293     -9.2839050293
    459.5801696777    133.3333282471     -9.2585372925     -9.2585372925
    439.3702392578    133.3333282471     -8.6483554840     -8.6483554840
    439.3072814941    106.6666717529     -8.5638799667     -8.5638799667
    459.5801696777    133.3333282471     -9.2585372925     -9.2585372925
    459.6221618652    160.0000000000     -9.2272500992     -9.2272500992
    439.4332275391    160.0000000000     -8.7485733032     -8.7485733032
    439.3702392578    133.3333282471     -8.6483554840     -8.6483554840
    459.6221618652    160.0000000000     -9.2272500992     -9.2272500992
    459.6641235352    186.6666717529     -9.2029352188     -9.2029352188
    439.4961853027    186.6666717529     -8.8146400452     -8.8146400452
    439.4332275391    160.0000000000     -8.7485733032     -8.7485733032
    459.6641235352    186.6666717529     -9.2029352188     -9.2029352188
    459.7061157227    213.3333282471     -9.1965169907     -9.1965169907
    439.5591735840    213.3333282471     -8.8057546616     -8.8057546616
    439.4961853027    186.6666717529     -8.8146400452     -8.8146400452
    459.7061157227    213.3333282471     -9.1965169907     -9.1965169907
    459.7481079102    240.0000000000     -9.2077922821     -9.2077922821
    439.6221618652    240.0000000000     -8.7277183533     -8.7277183533
    439.5591735840    213.3333282471     -8.8057546616     -8.8057546616
    459.7481079102    240.0000000000     -9.2077922821     -9.2077922821
    459.7900695801    266.6666564941     -9.2281074524     -9.2281074524
    439.6851196289    266.6666564941     -8.6343050003     -8.6343050003
    439.6221618652    240.0000000000     -8.7277183533     -8.7277183533
    459.7900695801    266.6666564941     -9.2281074524     -9.2281074524
    459.8320617676    293.3333435059     -9.2460927963     -9.2460927963
    439.7481079102    293.3333435059     -8.5876846313     -8.5876846313
    439.6851196289    266.6666564941     -8.6343050003     -8.6343050003
    459.8320617676    293.3333435059     -9.2460927963     -9.2460927963
    459.8740539551    320.0000000000     -9.2531423569     -9.2531423569
    439.8110656738    320.0000000000     -8.6140422821     -8.6140422821
    439.7481079102    293.3333435059     -8.5876846313     -8.5876846313
    459.8740539551    320.0000000000     -9.2531423569     -9.2531423569
    459.9160156250    346.6666564941     -9.2481975555     -9.2481975555
    439.8740539551    346.6666564941     -8.6903591156     -8.6903591156
    439.8110656738    320.0000000000     -8.6140422821     -8.6140422821
    459.9160156250    346.6666564941     -9.2481975555     -9.2481975555
    459.9580078125    373.3333435059     -9.2318344116     -9.2318344116
    439.9370422363    373.3333435059     -8.7459049225     -8.7459049225
    439.8740539551    346.6666564941     -8.6903591156     -8.6903591156
    459.9580078125    373.3333435059     -9.2318344116     -9.2318344116
    460.0000000000    400.0000000000     -9.2318344116     -9.2318344116
    440.0000000000    400.0000000000     -8.7459049225     -8.7459049225
    439.9370422363    373.3333435059     -8.7459049225     -8.7459049225
    439.0553588867      0.0000000000     -8.4936752319     -8.4936752319
    439.1183471680     26.6666698456     -8.4936752319     -8.4936752319
    418.8244628906     26.6666698456     -9.5550794601     -9.5550794601
    418.7405090332      0.0000000000     -9.5550794601     -9.5550794601
    439.1183471680     26.6666698456     -8.4936752319     -8.4936752319
    439.1813049316     53.3333282471     -8.5005626678     -8.5005626678
    418.9084167480     53.3333282471     -9.5856599808     -9.5856599808
    418.8244628906     26.6666698456     -9.5550794601     -9.5550794601
    439.1813049316     53.3333282471     -8.5005626678     -8.5005626678
    439.2442932129     80.0000000000     -8.5178203583     -8.5178203583
    418.9924011230     80.0000000000     -9.4606122971     -9.4606122971
    418.9084167480     53.3333282471     -9.5856599808     -9.5856599808
    439.2442932129     80.0000000000     -8.5178203583     -8.5178203583
    439.3072814941    106.6666717529     -8.5638799667     -8.5638799667
    419.0763549805    106.6666717529     -8.9134874344     -8.9134874344
    418.9924011230     80.0000000000     -9.4606122971     -9.4606122971
    439.3072814941    106.6666717529     -8.5638799667     -8.5638799667
    439.3702392578    133.3333282471     -8.6483554840     -8.6483554840
    419.1603393555    133.3333282471     -7.8280878067     -7.8280878067
    419.0763549805    106.6666717529     -8.9134874344     -8.9134874344
    439.3702392578    133.3333282471     -8.6483554840     -8.6483554840
    439.4332275391    160.0000000000     -8.7485733032     -8.7485733032
    419.2442932129    160.0000000000     -6.4985399246     -6.4985399246
    419.1603393555    133.3333282471     -7.8280878067     -7.8280878067
    439.4332275391    160.0000000000     -8.7485733032     -8.7485733032
    439.4961853027    186.6666717529     -8.8146400452     -8.8146400452
    419.3282775879    186.6666717529     -5.5441451073     -5.5441451073
    419.2442932129    160.0000000000     -6.4985399246     -6.4985399246
    439.4961853027    186.6666717529     -8.8146400452     -8.8146400452
    439.5591735840    213.3333282471     -8.8057546616     -8.8057546616
    419.4122314453    213.3333282471     -5.4733724594     -5.4733724594
    419.3282775879    186.6666717529     -5.5441451073     -5.5441451073
    439.5591735840    213.3333282471     -8.8057546616     -8.8057546616
    439.6221618652    240.0000000000     -8.7277183533     -8.7277183533
    419.4961853027    240.0000000000     -6.2656974792     -6.2656974792
    419.4122314453    213.3333282471     -5.4733724594     -5.4733724594
    439.6221618652    240.0000000000     -8.7277183533     -8.7277183533
    439.6851196289    266.6666564941     -8.6343050003     -8.6343050003
    419.5801696777    266.6666564941     -7.3699898720     -7.3699898720
    419.4961853027    240.0000000000     -6.2656974792     -6.2656974792
    439.6851196289    266.6666564941     -8.6343050003     -8.6343050003
    439.7481079102    293.3333435059     -8.5876846313     -8.5876846313
    419.6641235352    293.3333435059     -8.1153821945     -8.1153821945
    419.5801696777    266.6666564941     -7.3699898720     -7.3699898720
    439.7481079102    293.3333435059     -8.5876846313     -8.5876846313
    439.8110656738    320.0000000000     -8.6140422821     -8.6140422821
    419.7481079102    320.0000000000     -8.1489429474     -8.1489429474
    419.6641235352    293.3333435059     -8.1153821945     -8.1153821945
    439.8110656738    320.0000000000     -8.6140422821     -8.6140422821
    439.8740539551    346.6666564941     -8.6903591156     -8.6903591156
    419.8320617676    346.6666564941     -7.5820250511     -7.5820250511
    419.7481079102    320.0000000000     -8.1489429474     -8.1489429474
    439.8740539551    346.6666564941     -8.6903591156     -8.6903591156
    439.9370422363    373.3333435059     -8.7459049225     -8.7459049225
    419.9160156250    373.3333435059     -6.8655076027     -6.8655076027
    419.8320617676    346.6666564941     -7.5820250511     -7.5820250511
    439.9370422363    373.3333435059     -8.7459049225     -8.7459049225
    440.0000000000    400.0000000000     -8.7459049225     -8.7459049225
    420.0000000000    400.0000000000     -6.8655076027     -6.8655076027
    419.9160156250    373.3333435059     -6.8655076027     -6.8655076027
    418.7405090332      0.0000000000     -9.5550794601     -9.5550794601
    418.8244628906     26.6666698456     -9.5550794601     -9.5550794601
    398.5305786133     26.6666698456     -9.9444026947     -9.9444026947
    398.4256286621      0.0000000000     -9.9444026947     -9.9444026947
    418.8244628906     26.6666698456     -9.5550794601     -9.5550794601
    418.9084167480     53.3333282471     -9.5856599808     -9.5856599808
    398.6355285645     53.3333282471    -10.8726005554    -10.8726005554
    398.5305786133     26.6666698456     -9.9444026947     -9.9444026947
    418.9084167480     53.3333282471     -9.5856599808     -9.5856599808
    418.9924011230     80.0000000000     -9.4606122971     -9.4606122971
    398.7405090332     80.0000000000    -11.5070581436    -11.5070581436
    398.6355285645     53.3333282471    -10.8726005554    -10.8726005554
    418.9924011230     80.0000000000     -9.4606122971     -9.4606122971
    419.0763549805    106.6666717529     -8.9134874344     -8.9134874344
    398.8454589844    106.6666717529    -10.8951396942    -10.8951396942
    398.7405090332     80.0000000000    -11.5070581436    -11.5070581436
    419.0763549805    106.6666717529     -8.9134874344     -8.9134874344
    419.1603393555    133.3333282471     -7.8280878067     -7.8280878067
    398.9504089355    133.3333282471     -8.6928930283     -8.6928930283
    398.8454589844    106.6666717529    -10.8951396942    -10.8951396942
    419.1603393555    133.3333282471     -7.8280878067     -7.8280878067
    419.2442932129    160.0000000000     -6.4985399246     -6.4985399246
    399.0553588867    160.0000000000     -5.5930948257     -5.5930948257
    398.9504089355    133.3333282471     -8.6928930283     -8.6928930283
    419.2442932129    160.0000000000     -6.4985399246     -6.4985399246
    419.3282775879    186.6666717529     -5.5441451073     -5.5441451073
    399.1603393555    186.6666717529     -2.8736250401     -2.8736250401
    399.0553588867    160.0000000000     -5.5930948257     -5.5930948257
    419.3282775879    186.6666717529     -5.5441451073     -5.5441451073
    419.4122314453    213.3333282471     -5.4733724594     -5.4733724594
    399.2652893066    213.3333282471     -1.4879999161     -1.4879999161
    399.1603393555    186.6666717529     -2.8736250401     -2.8736250401
    419.4122314453    213.3333282471     -5.4733724594     -5.4733724594
    419.4961853027    240.0000000000     -6.2656974792     -6.2656974792
    399.3702392578    240.0000000000     -1.5793547630     -1.5793547630
    399.2652893066    213.3333282471     -1.4879999161     -1.4879999161
    419.4961853027    240.0000000000     -6.2656974792     -6.2656974792
    419.5801696777    266.6666564941     -7.3699898720     -7.3699898720
    399.4752197266    266.6666564941     -2.7654073238     -2.7654073238
    399.3702392578    240.0000000000     -1.5793547630     -1.5793547630
    419.5801696777    266.6666564941     -7.3699898720     -7.3699898720
    419.6641235352    293.3333435059     -8.1153821945     -8.1153821945
    399.5801696777    293.3333435059     -4.5643897057     -4.5643897057
    399.4752197266    266.6666564941     -2.7654073238     -2.7654073238
    419.6641235352    293.3333435059     -8.1153821945     -8.1153821945
    419.7481079102    320.0000000000     -8.1489429474     -8.1489429474
    399.6851196289    320.0000000000     -6.3601975441     -6.3601975441
    399.5801696777    293.3333435059     -4.5643897057     -4.5643897057
    419.7481079102    320.0000000000     -8.1489429474     -8.1489429474
    419.8320617676    346.6666564941     -7.5820250511     -7.5820250511
    399.7900695801    346.6666564941     -7.3183951378     -7.3183951378
    399.6851196289    320.0000000000     -6.3601975441     -6.3601975441
    419.8320617676    346.6666564941     -7.5820250511     -7.5820250511
    419.9160156250    373.3333435059     -6.8655076027     -6.8655076027
    399.8950500488    373.3333435059     -6.9153676033     -6.9153676033
    399.7900695801    346.6666564941     -7.3183951378     -7.3183951378
    419.9160156250    373.3333435059     -6.8655076027     -6.8655076027
    420.0000000000    400.0000000000     -6.8655076027     -6.8655076027
    400.0000000000    400.0000000000     -6.9153676033     -6.9153676033
    399.8950500488    373.3333435059     -6.9153676033     -6.9153676033
    398.4256286621      0.0000000000     -9.9444026947     -9.9444026947
    398.5305786133     26.6666698456     -9.9444026947     -9.9444026947
    378.2366943359     26.6666698456     -0.4696376324     -0.4696376324
    378.1107482910      0.0000000000     -0.4696376324     -0.4696376324
    398.5305786133     26.6666698456     -9.9444026947     -9.9444026947
    398.6355285645     53.3333282471    -10.8726005554    -10.8726005554
    378.3626403809     53.3333282471     -2.2718372345     -2.2718372345
    378.2366943359     26.6666698456     -0.4696376324     -0.4696376324
    398.6355285645     53.3333282471    -10.8726005554    -10.8726005554
    398.7405090332     80.0000000000    -11.5070581436    -11.5070581436
    378.4885864258     80.0000000000     -4.0319404602     -4.0319404602
    378.3626403809     53.3333282471     -2.2718372345     -2.2718372345
    398.7405090332     80.0000000000    -11.5070581436    -11.5070581436
    398.8454589844    106.6666717529    -10.8951396942    -10.8951396942
    378.6145629883    106.6666717529     -5.3007721901     -5.3007721901
    378.4885864258     80.0000000000     -4.0319404602     -4.0319404602
    398.8454589844    106.6666717529    -10.8951396942    -10.8951396942
    398.9504089355    133.3333282471     -8.6928930283     -8.6928930283
    378.7405090332    133.3333282471     -6.3680520058     -6.3680520058
    378.6145629883    106.6666717529     -5.3007721901     -5.3007721901
    398.9504089355    133.3333282471     -8.6928930283     -8.6928930283
    399.0553588867    160.0000000000     -5.5930948257     -5.5930948257
    378.8664550781    160.0000000000     -7.2814998627     -7.2814998627
    378.7405090332    133.3333282471     -6.3680520058     -6.3680520058
    399.0553588867    160.0000000000     -5.5930948257     -5.5930948257
    399.1603393555    186.6666717529     -2.8736250401     -2.8736250401
    378.9924011230    186.6666717529     -7.0439724922     -7.0439724922
    378.8664550781    160.0000000000     -7.2814998627     -7.2814998627
    399.1603393555    186.6666717529     -2.8736250401     -2.8736250401
    399.2652893066    213.3333282471     -1.4879999161     -1.4879999161
    379.1183471680    213.3333282471     -4.3285951614     -4.3285951614
    378.9924011230    186.6666717529     -7.0439724922     -7.0439724922
    399.2652893066    213.3333282471     -1.4879999161     -1.4879999161
    399.3702392578    240.0000000000     -1.5793547630     -1.5793547630
    379.2442932129    240.0000000000      0.5940225720      0.5940225720
    379.1183471680    213.3333282471     -4.3285951614     -4.3285951614
    399.3702392578    240.0000000000     -1.5793547630     -1.5793547630
    399.4752197266    266.6666564941     -2.7654073238     -2.7654073238
    379.3702392578    266.6666564941      4.9101176262      4.9101176262
    379.2442932129    240.0000000000      0.5940225720      0.5940225720
    399.4752197266    266.6666564941     -2.7654073238     -2.7654073238
    399.5801696777    293.3333435059     -4.5643897057     -4.5643897057
    379.4961853027    293.3333435059      5.1038427353      5.1038427353
    379.3702392578    266.6666564941      4.9101176262      4.9101176262
    399.5801696777    293.3333435059     -4.5643897057     -4.5643897057
    399.6851196289    320.0000000000     -6.3601975441     -6.3601975441
    379.6221618652    320.0000000000      0.3029247522      0.3029247522
    379.4961853027    293.3333435059      5.1038427353      5.1038427353
    399.6851196289    320.0000000000     -6.3601975441     -6.3601975441
    399.7900695801    346.6666564941     -7.3183951378     -7.3183951378
    379.7481079102    346.6666564941     -6.3701677322     -6.3701677322
    379.6221618652    320.0000000000      0.3029247522      0.3029247522
    399.7900695801    346.6666564941     -7.3183951378     -7.3183951378
    399.8950500488    373.3333435059     -6.9153676033     -6.9153676033
    379.8740539551    373.3333435059    -10.1198873520    -10.1198873520
    379.7481079102    346.6666564941     -6.3701677322     -6.3701677322
    399.8950500488    373.3333435059     -6.9153676033     -6.9153676033
    400.0000000000    400.0000000000     -6.9153676033     -6.9153676033
    380.0000000000    400.0000000000    -10.1198873520    -10.1198873520
    379.8740539551    373.3333435059    -10.1198873520    -10.1198873520
    378.1107482910      0.0000000000     -0.4696376324     -0.4696376324
    378.2366943359     26.6666698456     -0.4696376324     -0.4696376324
    357.9428100586     26.6666698456      8.0964069366      8.0964069366
    357.7958679199      0.0000000000      8.0964069366      8.0964069366
    378.2366943359     26.6666698456     -0.4696376324     -0.4696376324
    378.3626403809     53.3333282471     -2.2718372345     -2.2718372345
    358.0897521973     53.3333282471      8.3825531006      8.3825531006
    357.9428100586     26.6666698456      8.0964069366      8.0964069366
    378.3626403809     53.3333282471     -2.2718372345     -2.2718372345
    378.4885864258     80.0000000000     -4.0319404602     -4.0319404602
    358.2366943359     80.0000000000      8.9127998352      8.9127998352
    358.0897521973     53.3333282471      8.3825531006      8.3825531006
    378.4885864258     80.0000000000     -4.0319404602     -4.0319404602
    378.6145629883    106.6666717529     -5.3007721901     -5.3007721901
    358.3836364746    106.6666717529      7.9912424088      7.9912424088
    358.2366943359     80.0000000000      8.9127998352      8.9127998352
    378.6145629883    106.6666717529     -5.3007721901     -5.3007721901
    378.7405090332    133.3333282471     -6.3680520058     -6.3680520058
    358.5305786133    133.3333282471      3.7377576828      3.7377576828
    358.3836364746    106.6666717529      7.9912424088      7.9912424088
    378.7405090332    133.3333282471     -6.3680520058     -6.3680520058
    378.8664550781    160.0000000000     -7.2814998627     -7.2814998627
    358.6775207520    160.0000000000     -3.0498499870     -3.0498499870
    358.5305786133    133.3333282471      3.7377576828      3.7377576828
    378.8664550781    160.0000000000     -7.2814998627     -7.2814998627
    378.9924011230    186.6666717529     -7.0439724922     -7.0439724922
    358.8244628906    186.6666717529     -8.2861175537     -8.2861175537
    358.6775207520    160.0000000000     -3.0498499870     -3.0498499870
    378.9924011230    186.6666717529     -7.0439724922     -7.0439724922
    379.1183471680    213.3333282471     -4.3285951614     -4.3285951614
    358.9714050293    213.3333282471     -7.6691493988     -7.6691493988
    358.8244628906    186.6666717529     -8.2861175537     -8.2861175537
    379.1183471680    213.3333282471     -4.3285951614     -4.3285951614
    379.2442932129    240.0000000000      0.5940225720      0.5940225720
    359.1183471680    240.0000000000     -0.9268723726     -0.9268723726
    358.9714050293    213.3333282471     -7.6691493988     -7.6691493988
    379.2442932129    240.0000000000      0.5940225720      0.5940225720
    379.3702392578    266.6666564941      4.9101176262      4.9101176262
    359.2652893066    266.6666564941      7.1751699448      7.1751699448
    359.1183471680    240.0000000000     -0.9268723726     -0.9268723726
    379.3702392578    266.6666564941      4.9101176262      4.9101176262
    379.4961853027    293.3333435059      5.1038427353      5.1038427353
    359.4122314453    293.3333435059     10.5273199081     10.5273199081
    359.2652893066    266.6666564941      7.1751699448      7.1751699448
    379.4961853027    293.3333435059      5.1038427353      5.1038427353
    379.6221618652    320.0000000000      0.3029247522      0.3029247522
    359.5591735840    320.0000000000      6.6739578247      6.6739578247
    359.4122314453    293.3333435059     10.5273199081     10.5273199081