 VARIABLES= "X","Y","Z","yita"  
ZONE N=                                        3000 E=                              750 F=FEPOINT, ET=QUADRILATERAL
    500.0000000000      0.0000000000      3.7226924896      3.7226924896
    500.0000000000     26.6666698456      3.7226924896      3.7226924896
    479.7061157227     26.6666698456      3.7226924896      3.7226924896
    479.6851196289      0.0000000000      3.7226924896      3.7226924896
    500.0000000000     26.6666698456      3.7226924896      3.7226924896
    500.0000000000     53.3333282471      3.7258000374      3.7258000374
    479.7271118164     53.3333282471      3.7258000374      3.7258000374
    479.7061157227     26.6666698456      3.7226924896      3.7226924896
    500.0000000000     53.3333282471      3.7258000374      3.7258000374
    500.0000000000     80.0000000000      3.7095925808      3.7095925808
    479.7481079102     80.0000000000      3.7095925808      3.7095925808
    479.7271118164     53.3333282471      3.7258000374      3.7258000374
    500.0000000000     80.0000000000      3.7095925808      3.7095925808
    500.0000000000    106.6666717529      3.6927776337      3.6927776337
    479.7691040039    106.6666717529      3.6927776337      3.6927776337
    479.7481079102     80.0000000000      3.7095925808      3.7095925808
    500.0000000000    106.6666717529      3.6927776337      3.6927776337
    500.0000000000    133.3333282471      3.6938676834      3.6938676834
    479.7900695801    133.3333282471      3.6938676834      3.6938676834
    479.7691040039    106.6666717529      3.6927776337      3.6927776337
    500.0000000000    133.3333282471      3.6938676834      3.6938676834
    500.0000000000    160.0000000000      3.6857199669      3.6857199669
    479.8110656738    160.0000000000      3.6857199669      3.6857199669
    479.7900695801    133.3333282471      3.6938676834      3.6938676834
    500.0000000000    160.0000000000      3.6857199669      3.6857199669
    500.0000000000    186.6666717529      3.6747000217      3.6747000217
    479.8320617676    186.6666717529      3.6747000217      3.6747000217
    479.8110656738    160.0000000000      3.6857199669      3.6857199669
    500.0000000000    186.6666717529      3.6747000217      3.6747000217
    500.0000000000    213.3333282471      3.6726300716      3.6726300716
    479.8530578613    213.3333282471      3.6726300716      3.6726300716
    479.8320617676    186.6666717529      3.6747000217      3.6747000217
    500.0000000000    213.3333282471      3.6726300716      3.6726300716
    500.0000000000    240.0000000000      3.6804924011      3.6804924011
    479.8740539551    240.0000000000      3.6804924011      3.6804924011
    479.8530578613    213.3333282471      3.6726300716      3.6726300716
    500.0000000000    240.0000000000      3.6804924011      3.6804924011
    500.0000000000    266.6666564941      3.6901173592      3.6901173592
    479.8950500488    266.6666564941      3.6901173592      3.6901173592
    479.8740539551    240.0000000000      3.6804924011      3.6804924011
    500.0000000000    266.6666564941      3.6901173592      3.6901173592
    500.0000000000    293.3333435059      3.6917250156      3.6917250156
    479.9160156250    293.3333435059      3.6917250156      3.6917250156
    479.8950500488    266.6666564941      3.6901173592      3.6901173592
    500.0000000000    293.3333435059      3.6917250156      3.6917250156
    500.0000000000    320.0000000000      3.6923224926      3.6923224926
    479.9370422363    320.0000000000      3.6923224926      3.6923224926
    479.9160156250    293.3333435059      3.6917250156      3.6917250156
    500.0000000000    320.0000000000      3.6923224926      3.6923224926
    500.0000000000    346.6666564941      3.6947851181      3.6947851181
    479.9580078125    346.6666564941      3.6947851181      3.6947851181
    479.9370422363    320.0000000000      3.6923224926      3.6923224926
    500.0000000000    346.6666564941      3.6947851181      3.6947851181
    500.0000000000    373.3333435059      3.6952898502      3.6952898502
    479.9790039062    373.3333435059      3.6952898502      3.6952898502
    479.9580078125    346.6666564941      3.6947851181      3.6947851181
    500.0000000000    373.3333435059      3.6952898502      3.6952898502
    500.0000000000    400.0000000000      3.6952898502      3.6952898502
    480.0000000000    400.0000000000      3.6952898502      3.6952898502
    479.9790039062    373.3333435059      3.6952898502      3.6952898502
    479.6851196289      0.0000000000      3.7226924896      3.7226924896
    479.7061157227     26.6666698456      3.7226924896      3.7226924896
    459.4122314453     26.6666698456      0.7728499174      0.7728499174
    459.3702392578      0.0000000000      0.7728499174      0.7728499174
    479.7061157227     26.6666698456      3.7226924896      3.7226924896
    479.7271118164     53.3333282471      3.7258000374      3.7258000374
    459.4542236328     53.3333282471      0.7678725123      0.7678725123
    459.4122314453     26.6666698456      0.7728499174      0.7728499174
    479.7271118164     53.3333282471      3.7258000374      3.7258000374
    479.7481079102     80.0000000000      3.7095925808      3.7095925808
    459.4961853027     80.0000000000      0.7580049038      0.7580049038
    459.4542236328     53.3333282471      0.7678725123      0.7678725123
    479.7481079102     80.0000000000      3.7095925808      3.7095925808
    479.7691040039    106.6666717529      3.6927776337      3.6927776337
    459.5381774902    106.6666717529      0.7456425428      0.7456425428
    459.4961853027     80.0000000000      0.7580049038      0.7580049038
    479.7691040039    106.6666717529      3.6927776337      3.6927776337
    479.7900695801    133.3333282471      3.6938676834      3.6938676834
    459.5801696777    133.3333282471      0.7332875729      0.7332875729
    459.5381774902    106.6666717529      0.7456425428      0.7456425428
    479.7900695801    133.3333282471      3.6938676834      3.6938676834
    479.8110656738    160.0000000000      3.6857199669      3.6857199669
    459.6221618652    160.0000000000      0.7262374759      0.7262374759
    459.5801696777    133.3333282471      0.7332875729      0.7332875729
    479.8110656738    160.0000000000      3.6857199669      3.6857199669
    479.8320617676    186.6666717529      3.6747000217      3.6747000217
    459.6641235352    186.6666717529      0.7348250747      0.7348250747
    459.6221618652    160.0000000000      0.7262374759      0.7262374759
    479.8320617676    186.6666717529      3.6747000217      3.6747000217
    479.8530578613    213.3333282471      3.6726300716      3.6726300716
    459.7061157227    213.3333282471      0.7652349472      0.7652349472
    459.6641235352    186.6666717529      0.7348250747      0.7348250747
    479.8530578613    213.3333282471      3.6726300716      3.6726300716
    479.8740539551    240.0000000000      3.6804924011      3.6804924011
    459.7481079102    240.0000000000      0.8089948893      0.8089948893
    459.7061157227    213.3333282471      0.7652349472      0.7652349472
    479.8740539551    240.0000000000      3.6804924011      3.6804924011
    479.8950500488    266.6666564941      3.6901173592      3.6901173592
    459.7900695801    266.6666564941      0.8457624912      0.8457624912
    459.7481079102    240.0000000000      0.8089948893      0.8089948893
    479.8950500488    266.6666564941      3.6901173592      3.6901173592
    479.9160156250    293.3333435059      3.6917250156      3.6917250156
    459.8320617676    293.3333435059      0.8568275571      0.8568275571
    459.7900695801    266.6666564941      0.8457624912      0.8457624912
    479.9160156250    293.3333435059      3.6917250156      3.6917250156
    479.9370422363    320.0000000000      3.6923224926      3.6923224926
    459.8740539551    320.0000000000      0.8394125700      0.8394125700
    459.8320617676    293.3333435059      0.8568275571      0.8568275571
    479.9370422363    320.0000000000      3.6923224926      3.6923224926
    479.9580078125    346.6666564941      3.6947851181      3.6947851181
    459.9160156250    346.6666564941      0.8096749783      0.8096749783
    459.8740539551    320.0000000000      0.8394125700      0.8394125700
    479.9580078125    346.6666564941      3.6947851181      3.6947851181
    479.9790039062    373.3333435059      3.6952898502      3.6952898502
    459.9580078125    373.3333435059      0.7840850353      0.7840850353
    459.9160156250    346.6666564941      0.8096749783      0.8096749783
    479.9790039062    373.3333435059      3.6952898502      3.6952898502
    480.0000000000    400.0000000000      3.6952898502      3.6952898502
    460.0000000000    400.0000000000      0.7840850353      0.7840850353
    459.9580078125    373.3333435059      0.7840850353      0.7840850353
    459.3702392578      0.0000000000      0.7728499174      0.7728499174
    459.4122314453     26.6666698456      0.7728499174      0.7728499174
    439.1183471680     26.6666698456     -2.2749300003     -2.2749300003
    439.0553588867      0.0000000000     -2.2749300003     -2.2749300003
    459.4122314453     26.6666698456      0.7728499174      0.7728499174
    459.4542236328     53.3333282471      0.7678725123      0.7678725123
    439.1813049316     53.3333282471     -2.2274026871     -2.2274026871
    439.1183471680     26.6666698456     -2.2749300003     -2.2749300003
    459.4542236328     53.3333282471      0.7678725123      0.7678725123
    459.4961853027     80.0000000000      0.7580049038      0.7580049038
    439.2442932129     80.0000000000     -2.1867699623     -2.1867699623
    439.1813049316     53.3333282471     -2.2274026871     -2.2274026871
    459.4961853027     80.0000000000      0.7580049038      0.7580049038
    459.5381774902    106.6666717529      0.7456425428      0.7456425428
    439.3072814941    106.6666717529     -2.1613624096     -2.1613624096
    439.2442932129     80.0000000000     -2.1867699623     -2.1867699623
    459.5381774902    106.6666717529      0.7456425428      0.7456425428
    459.5801696777    133.3333282471      0.7332875729      0.7332875729
    439.3702392578    133.3333282471     -2.1406474113     -2.1406474113
    439.3072814941    106.6666717529     -2.1613624096     -2.1613624096
    459.5801696777    133.3333282471      0.7332875729      0.7332875729
    459.6221618652    160.0000000000      0.7262374759      0.7262374759
    439.4332275391    160.0000000000     -2.1235599518     -2.1235599518
    439.3702392578    133.3333282471     -2.1406474113     -2.1406474113
    459.6221618652    160.0000000000      0.7262374759      0.7262374759
    459.6641235352    186.6666717529      0.7348250747      0.7348250747
    439.4961853027    186.6666717529     -2.1323649883     -2.1323649883
    439.4332275391    160.0000000000     -2.1235599518     -2.1235599518
    459.6641235352    186.6666717529      0.7348250747      0.7348250747
    459.7061157227    213.3333282471      0.7652349472      0.7652349472
    439.5591735840    213.3333282471     -2.1882524490     -2.1882524490
    439.4961853027    186.6666717529     -2.1323649883     -2.1323649883
    459.7061157227    213.3333282471      0.7652349472      0.7652349472
    459.7481079102    240.0000000000      0.8089948893      0.8089948893
    439.6221618652    240.0000000000     -2.2753548622     -2.2753548622
    439.5591735840    213.3333282471     -2.1882524490     -2.1882524490
    459.7481079102    240.0000000000      0.8089948893      0.8089948893
    459.7900695801    266.6666564941      0.8457624912      0.8457624912
    439.6851196289    266.6666564941     -2.3385224342     -2.3385224342
    439.6221618652    240.0000000000     -2.2753548622     -2.2753548622
    459.7900695801    266.6666564941      0.8457624912      0.8457624912
    459.8320617676    293.3333435059      0.8568275571      0.8568275571
    439.7481079102    293.3333435059     -2.3243925571     -2.3243925571
    439.6851196289    266.6666564941     -2.3385224342     -2.3385224342
    459.8320617676    293.3333435059      0.8568275571      0.8568275571
    459.8740539551    320.0000000000      0.8394125700      0.8394125700
    439.8110656738    320.0000000000     -2.2287750244     -2.2287750244
    439.7481079102    293.3333435059     -2.3243925571     -2.3243925571
    459.8740539551    320.0000000000      0.8394125700      0.8394125700
    459.9160156250    346.6666564941      0.8096749783      0.8096749783
    439.8740539551    346.6666564941     -2.1048099995     -2.1048099995
    439.8110656738    320.0000000000     -2.2287750244     -2.2287750244
    459.9160156250    346.6666564941      0.8096749783      0.8096749783
    459.9580078125    373.3333435059      0.7840850353      0.7840850353
    439.9370422363    373.3333435059     -2.0318899155     -2.0318899155
    439.8740539551    346.6666564941     -2.1048099995     -2.1048099995
    459.9580078125    373.3333435059      0.7840850353      0.7840850353
    460.0000000000    400.0000000000      0.7840850353      0.7840850353
    440.0000000000    400.0000000000     -2.0318899155     -2.0318899155
    439.9370422363    373.3333435059     -2.0318899155     -2.0318899155
    439.0553588867      0.0000000000     -2.2749300003     -2.2749300003
    439.1183471680     26.6666698456     -2.2749300003     -2.2749300003
    418.8244628906     26.6666698456     -4.6475276947     -4.6475276947
    418.7405090332      0.0000000000     -4.6475276947     -4.6475276947
    439.1183471680     26.6666698456     -2.2749300003     -2.2749300003
    439.1813049316     53.3333282471     -2.2274026871     -2.2274026871
    418.9084167480     53.3333282471     -5.1118526459     -5.1118526459
    418.8244628906     26.6666698456     -4.6475276947     -4.6475276947
    439.1813049316     53.3333282471     -2.2274026871     -2.2274026871
    439.2442932129     80.0000000000     -2.1867699623     -2.1867699623
    418.9924011230     80.0000000000     -5.6057052612     -5.6057052612
    418.9084167480     53.3333282471     -5.1118526459     -5.1118526459
    439.2442932129     80.0000000000     -2.1867699623     -2.1867699623
    439.3072814941    106.6666717529     -2.1613624096     -2.1613624096
    419.0763549805    106.6666717529     -6.0753774643     -6.0753774643
    418.9924011230     80.0000000000     -5.6057052612     -5.6057052612
    439.3072814941    106.6666717529     -2.1613624096     -2.1613624096
    439.3702392578    133.3333282471     -2.1406474113     -2.1406474113
    419.1603393555    133.3333282471     -6.5856781006     -6.5856781006
    419.0763549805    106.6666717529     -6.0753774643     -6.0753774643
    439.3702392578    133.3333282471     -2.1406474113     -2.1406474113
    439.4332275391    160.0000000000     -2.1235599518     -2.1235599518
    419.2442932129    160.0000000000     -6.9916448593     -6.9916448593
    419.1603393555    133.3333282471     -6.5856781006     -6.5856781006
    439.4332275391    160.0000000000     -2.1235599518     -2.1235599518
    439.4961853027    186.6666717529     -2.1323649883     -2.1323649883
    419.3282775879    186.6666717529     -6.8577480316     -6.8577480316
    419.2442932129    160.0000000000     -6.9916448593     -6.9916448593
    439.4961853027    186.6666717529     -2.1323649883     -2.1323649883
    439.5591735840    213.3333282471     -2.1882524490     -2.1882524490
    419.4122314453    213.3333282471     -5.8683023453     -5.8683023453
    419.3282775879    186.6666717529     -6.8577480316     -6.8577480316
    439.5591735840    213.3333282471     -2.1882524490     -2.1882524490
    439.6221618652    240.0000000000     -2.2753548622     -2.2753548622
    419.4961853027    240.0000000000     -4.3158874512     -4.3158874512
    419.4122314453    213.3333282471     -5.8683023453     -5.8683023453
    439.6221618652    240.0000000000     -2.2753548622     -2.2753548622
    439.6851196289    266.6666564941     -2.3385224342     -2.3385224342
    419.5801696777    266.6666564941     -3.0719301701     -3.0719301701
    419.4961853027    240.0000000000     -4.3158874512     -4.3158874512
    439.6851196289    266.6666564941     -2.3385224342     -2.3385224342
    439.7481079102    293.3333435059     -2.3243925571     -2.3243925571
    419.6641235352    293.3333435059     -2.9692025185     -2.9692025185
    419.5801696777    266.6666564941     -3.0719301701     -3.0719301701
    439.7481079102    293.3333435059     -2.3243925571     -2.3243925571
    439.8110656738    320.0000000000     -2.2287750244     -2.2287750244
    419.7481079102    320.0000000000     -4.1201024055     -4.1201024055
    419.6641235352    293.3333435059     -2.9692025185     -2.9692025185
    439.8110656738    320.0000000000     -2.2287750244     -2.2287750244
    439.8740539551    346.6666564941     -2.1048099995     -2.1048099995
    419.8320617676    346.6666564941     -5.7673277855     -5.7673277855
    419.7481079102    320.0000000000     -4.1201024055     -4.1201024055
    439.8740539551    346.6666564941     -2.1048099995     -2.1048099995
    439.9370422363    373.3333435059     -2.0318899155     -2.0318899155
    419.9160156250    373.3333435059     -6.8162426949     -6.8162426949
    419.8320617676    346.6666564941     -5.7673277855     -5.7673277855
    439.9370422363    373.3333435059     -2.0318899155     -2.0318899155
    440.0000000000    400.0000000000     -2.0318899155     -2.0318899155
    420.0000000000    400.0000000000     -6.8162426949     -6.8162426949
    419.9160156250    373.3333435059     -6.8162426949     -6.8162426949
    418.7405090332      0.0000000000     -4.6475276947     -4.6475276947
    418.8244628906     26.6666698456     -4.6475276947     -4.6475276947
    398.5305786133     26.6666698456     -3.5676500797     -3.5676500797
    398.4256286621      0.0000000000     -3.5676500797     -3.5676500797
    418.8244628906     26.6666698456     -4.6475276947     -4.6475276947
    418.9084167480     53.3333282471     -5.1118526459     -5.1118526459
    398.6355285645     53.3333282471     -3.9820773602     -3.9820773602
    398.5305786133     26.6666698456     -3.5676500797     -3.5676500797
    418.9084167480     53.3333282471     -5.1118526459     -5.1118526459
    418.9924011230     80.0000000000     -5.6057052612     -5.6057052612
    398.7405090332     80.0000000000     -4.8918027878     -4.8918027878
    398.6355285645     53.3333282471     -3.9820773602     -3.9820773602
    418.9924011230     80.0000000000     -5.6057052612     -5.6057052612
    419.0763549805    106.6666717529     -6.0753774643     -6.0753774643
    398.8454589844    106.6666717529     -6.8366451263     -6.8366451263
    398.7405090332     80.0000000000     -4.8918027878     -4.8918027878
    419.0763549805    106.6666717529     -6.0753774643     -6.0753774643
    419.1603393555    133.3333282471     -6.5856781006     -6.5856781006
    398.9504089355    133.3333282471    -10.0057048798    -10.0057048798
    398.8454589844    106.6666717529     -6.8366451263     -6.8366451263
    419.1603393555    133.3333282471     -6.5856781006     -6.5856781006
    419.2442932129    160.0000000000     -6.9916448593     -6.9916448593
    399.0553588867    160.0000000000    -13.2484846115    -13.2484846115
    398.9504089355    133.3333282471    -10.0057048798    -10.0057048798
    419.2442932129    160.0000000000     -6.9916448593     -6.9916448593
    419.3282775879    186.6666717529     -6.8577480316     -6.8577480316
    399.1603393555    186.6666717529    -14.3366298676    -14.3366298676
    399.0553588867    160.0000000000    -13.2484846115    -13.2484846115
    419.3282775879    186.6666717529     -6.8577480316     -6.8577480316
    419.4122314453    213.3333282471     -5.8683023453     -5.8683023453
    399.2652893066    213.3333282471    -11.8131828308    -11.8131828308
    399.1603393555    186.6666717529    -14.3366298676    -14.3366298676
    419.4122314453    213.3333282471     -5.8683023453     -5.8683023453
    419.4961853027    240.0000000000     -4.3158874512     -4.3158874512
    399.3702392578    240.0000000000     -6.6473398209     -6.6473398209
    399.2652893066    213.3333282471    -11.8131828308    -11.8131828308
    419.4961853027    240.0000000000     -4.3158874512     -4.3158874512
    419.5801696777    266.6666564941     -3.0719301701     -3.0719301701
    399.4752197266    266.6666564941     -1.9070848227     -1.9070848227
    399.3702392578    240.0000000000     -6.6473398209     -6.6473398209
    419.5801696777    266.6666564941     -3.0719301701     -3.0719301701
    419.6641235352    293.3333435059     -2.9692025185     -2.9692025185
    399.5801696777    293.3333435059     -0.6317924261     -0.6317924261
    399.4752197266    266.6666564941     -1.9070848227     -1.9070848227
    419.6641235352    293.3333435059     -2.9692025185     -2.9692025185
    419.7481079102    320.0000000000     -4.1201024055     -4.1201024055
    399.6851196289    320.0000000000     -3.6197052002     -3.6197052002
    399.5801696777    293.3333435059     -0.6317924261     -0.6317924261
    419.7481079102    320.0000000000     -4.1201024055     -4.1201024055
    419.8320617676    346.6666564941     -5.7673277855     -5.7673277855
    399.7900695801    346.6666564941     -8.7985248566     -8.7985248566
    399.6851196289    320.0000000000     -3.6197052002     -3.6197052002
    419.8320617676    346.6666564941     -5.7673277855     -5.7673277855
    419.9160156250    373.3333435059     -6.8162426949     -6.8162426949
    399.8950500488    373.3333435059    -12.6350822449    -12.6350822449
    399.7900695801    346.6666564941     -8.7985248566     -8.7985248566
    419.9160156250    373.3333435059     -6.8162426949     -6.8162426949
    420.0000000000    400.0000000000     -6.8162426949     -6.8162426949
    400.0000000000    400.0000000000    -12.6350822449    -12.6350822449
    399.8950500488    373.3333435059    -12.6350822449    -12.6350822449
    398.4256286621      0.0000000000     -3.5676500797     -3.5676500797
    398.5305786133     26.6666698456     -3.5676500797     -3.5676500797
    378.2366943359     26.6666698456     -4.2451176643     -4.2451176643
    378.1107482910      0.0000000000     -4.2451176643     -4.2451176643
    398.5305786133     26.6666698456     -3.5676500797     -3.5676500797
    398.6355285645     53.3333282471     -3.9820773602     -3.9820773602
    378.3626403809     53.3333282471     -1.8365100622     -1.8365100622
    378.2366943359     26.6666698456     -4.2451176643     -4.2451176643
    398.6355285645     53.3333282471     -3.9820773602     -3.9820773602
    398.7405090332     80.0000000000     -4.8918027878     -4.8918027878
    378.4885864258     80.0000000000     -0.6255049706     -0.6255049706
    378.3626403809     53.3333282471     -1.8365100622     -1.8365100622
    398.7405090332     80.0000000000     -4.8918027878     -4.8918027878
    398.8454589844    106.6666717529     -6.8366451263     -6.8366451263
    378.6145629883    106.6666717529     -2.4154398441     -2.4154398441
    378.4885864258     80.0000000000     -0.6255049706     -0.6255049706
    398.8454589844    106.6666717529     -6.8366451263     -6.8366451263
    398.9504089355    133.3333282471    -10.0057048798    -10.0057048798
    378.7405090332    133.3333282471     -7.0108146667     -7.0108146667
    378.6145629883    106.6666717529     -2.4154398441     -2.4154398441
    398.9504089355    133.3333282471    -10.0057048798    -10.0057048798
    399.0553588867    160.0000000000    -13.2484846115    -13.2484846115
    378.8664550781    160.0000000000    -12.1606397629    -12.1606397629
    378.7405090332    133.3333282471     -7.0108146667     -7.0108146667
    399.0553588867    160.0000000000    -13.2484846115    -13.2484846115
    399.1603393555    186.6666717529    -14.3366298676    -14.3366298676
    378.9924011230    186.6666717529    -15.0690526962    -15.0690526962
    378.8664550781    160.0000000000    -12.1606397629    -12.1606397629
    399.1603393555    186.6666717529    -14.3366298676    -14.3366298676
    399.2652893066    213.3333282471    -11.8131828308    -11.8131828308
    379.1183471680    213.3333282471    -14.3781948090    -14.3781948090
    378.9924011230    186.6666717529    -15.0690526962    -15.0690526962
    399.2652893066    213.3333282471    -11.8131828308    -11.8131828308
    399.3702392578    240.0000000000     -6.6473398209     -6.6473398209
    379.2442932129    240.0000000000    -10.9239006042    -10.9239006042
    379.1183471680    213.3333282471    -14.3781948090    -14.3781948090
    399.3702392578    240.0000000000     -6.6473398209     -6.6473398209
    399.4752197266    266.6666564941     -1.9070848227     -1.9070848227
    379.3702392578    266.6666564941     -6.8989448547     -6.8989448547
    379.2442932129    240.0000000000    -10.9239006042    -10.9239006042
    399.4752197266    266.6666564941     -1.9070848227     -1.9070848227
    399.5801696777    293.3333435059     -0.6317924261     -0.6317924261
    379.4961853027    293.3333435059     -4.4777927399     -4.4777927399
    379.3702392578    266.6666564941     -6.8989448547     -6.8989448547
    399.5801696777    293.3333435059     -0.6317924261     -0.6317924261
    399.6851196289    320.0000000000     -3.6197052002     -3.6197052002
    379.6221618652    320.0000000000     -4.7794399261     -4.7794399261
    379.4961853027    293.3333435059     -4.4777927399     -4.4777927399
    399.6851196289    320.0000000000     -3.6197052002     -3.6197052002
    399.7900695801    346.6666564941     -8.7985248566     -8.7985248566
    379.7481079102    346.6666564941     -7.3725976944     -7.3725976944
    379.6221618652    320.0000000000     -4.7794399261     -4.7794399261
    399.7900695801    346.6666564941     -8.7985248566     -8.7985248566
    399.8950500488    373.3333435059    -12.6350822449    -12.6350822449
    379.8740539551    373.3333435059    -10.4394321442    -10.4394321442
    379.7481079102    346.6666564941     -7.3725976944     -7.3725976944
    399.8950500488    373.3333435059    -12.6350822449    -12.6350822449
    400.0000000000    400.0000000000    -12.6350822449    -12.6350822449
    380.0000000000    400.0000000000    -10.4394321442    -10.4394321442
    379.8740539551    373.3333435059    -10.4394321442    -10.4394321442
    378.1107482910      0.0000000000     -4.2451176643     -4.2451176643
    378.2366943359     26.6666698456     -4.2451176643     -4.2451176643
    357.9428100586     26.6666698456    -13.1166000366    -13.1166000366
    357.7958679199      0.0000000000    -13.1166000366    -13.1166000366
    378.2366943359     26.6666698456     -4.2451176643     -4.2451176643
    378.3626403809     53.3333282471     -1.8365100622     -1.8365100622
    358.0897521973     53.3333282471     -8.9160270691     -8.9160270691
    357.9428100586     26.6666698456    -13.1166000366    -13.1166000366
    378.3626403809     53.3333282471     -1.8365100622     -1.8365100622
    378.4885864258     80.0000000000     -0.6255049706     -0.6255049706
    358.2366943359     80.0000000000     -5.9447474480     -5.9447474480
    358.0897521973     53.3333282471     -8.9160270691     -8.9160270691
    378.4885864258     80.0000000000     -0.6255049706     -0.6255049706
    378.6145629883    106.6666717529     -2.4154398441     -2.4154398441
    358.3836364746    106.6666717529     -5.4176454544     -5.4176454544
    358.2366943359     80.0000000000     -5.9447474480     -5.9447474480
    378.6145629883    106.6666717529     -2.4154398441     -2.4154398441
    378.7405090332    133.3333282471     -7.0108146667     -7.0108146667
    358.5305786133    133.3333282471     -5.7415223122     -5.7415223122
    358.3836364746    106.6666717529     -5.4176454544     -5.4176454544
    378.7405090332    133.3333282471     -7.0108146667     -7.0108146667
    378.8664550781    160.0000000000    -12.1606397629    -12.1606397629
    358.6775207520    160.0000000000     -5.3694400787     -5.3694400787
    358.5305786133    133.3333282471     -5.7415223122     -5.7415223122
    378.8664550781    160.0000000000    -12.1606397629    -12.1606397629
    378.9924011230    186.6666717529    -15.0690526962    -15.0690526962
    358.8244628906    186.6666717529     -5.1803698540     -5.1803698540
    358.6775207520    160.0000000000     -5.3694400787     -5.3694400787
    378.9924011230    186.6666717529    -15.0690526962    -15.0690526962
    379.1183471680    213.3333282471    -14.3781948090    -14.3781948090
    358.9714050293    213.3333282471     -7.2652225494     -7.2652225494
    358.8244628906    186.6666717529     -5.1803698540     -5.1803698540
    379.1183471680    213.3333282471    -14.3781948090    -14.3781948090
    379.2442932129    240.0000000000    -10.9239006042    -10.9239006042
    359.1183471680    240.0000000000    -11.7596454620    -11.7596454620
    358.9714050293    213.3333282471     -7.2652225494     -7.2652225494
    379.2442932129    240.0000000000    -10.9239006042    -10.9239006042
    379.3702392578    266.6666564941     -6.8989448547     -6.8989448547
    359.2652893066    266.6666564941    -15.7144031525    -15.7144031525
    359.1183471680    240.0000000000    -11.7596454620    -11.7596454620
    379.3702392578    266.6666564941     -6.8989448547     -6.8989448547
    379.4961853027    293.3333435059     -4.4777927399     -4.4777927399
    359.4122314453    293.3333435059    -15.5260534286    -15.5260534286
    359.2652893066    266.6666564941    -15.7144031525    -15.7144031525
    379.4961853027    293.3333435059     -4.4777927399     -4.4777927399
    379.6221618652    320.0000000000     -4.7794399261     -4.7794399261
    359.5591735840    320.0000000000    -10.5202674866    -10.5202674866
    359.4122314453    293.3333435059    -15.5260534286    -15.5260534286