 VARIABLES= "X","Y","Z","yita"  
ZONE N=                                        3000 E=                              750 F=FEPOINT, ET=QUADRILATERAL
    500.0000000000      0.0000000000     -8.0700769424     -8.0700769424
    500.0000000000     26.6666698456     -8.0700769424     -8.0700769424
    479.7061157227     26.6666698456     -8.0700769424     -8.0700769424
    479.6851196289      0.0000000000     -8.0700769424     -8.0700769424
    500.0000000000     26.6666698456     -8.0700769424     -8.0700769424
    500.0000000000     53.3333282471     -8.0722351074     -8.0722351074
    479.7271118164     53.3333282471     -8.0722351074     -8.0722351074
    479.7061157227     26.6666698456     -8.0700769424     -8.0700769424
    500.0000000000     53.3333282471     -8.0722351074     -8.0722351074
    500.0000000000     80.0000000000     -8.0540742874     -8.0540742874
    479.7481079102     80.0000000000     -8.0540742874     -8.0540742874
    479.7271118164     53.3333282471     -8.0722351074     -8.0722351074
    500.0000000000     80.0000000000     -8.0540742874     -8.0540742874
    500.0000000000    106.6666717529     -8.0371341705     -8.0371341705
    479.7691040039    106.6666717529     -8.0371341705     -8.0371341705
    479.7481079102     80.0000000000     -8.0540742874     -8.0540742874
    500.0000000000    106.6666717529     -8.0371341705     -8.0371341705
    500.0000000000    133.3333282471     -8.0402202606     -8.0402202606
    479.7900695801    133.3333282471     -8.0402202606     -8.0402202606
    479.7691040039    106.6666717529     -8.0371341705     -8.0371341705
    500.0000000000    133.3333282471     -8.0402202606     -8.0402202606
    500.0000000000    160.0000000000     -8.0209999084     -8.0209999084
    479.8110656738    160.0000000000     -8.0209999084     -8.0209999084
    479.7900695801    133.3333282471     -8.0402202606     -8.0402202606
    500.0000000000    160.0000000000     -8.0209999084     -8.0209999084
    500.0000000000    186.6666717529     -7.9983606339     -7.9983606339
    479.8320617676    186.6666717529     -7.9983606339     -7.9983606339
    479.8110656738    160.0000000000     -8.0209999084     -8.0209999084
    500.0000000000    186.6666717529     -7.9983606339     -7.9983606339
    500.0000000000    213.3333282471     -7.9962897301     -7.9962897301
    479.8530578613    213.3333282471     -7.9962897301     -7.9962897301
    479.8320617676    186.6666717529     -7.9983606339     -7.9983606339
    500.0000000000    213.3333282471     -7.9962897301     -7.9962897301
    500.0000000000    240.0000000000     -7.9930500984     -7.9930500984
    479.8740539551    240.0000000000     -7.9930500984     -7.9930500984
    479.8530578613    213.3333282471     -7.9962897301     -7.9962897301
    500.0000000000    240.0000000000     -7.9930500984     -7.9930500984
    500.0000000000    266.6666564941     -7.9897670746     -7.9897670746
    479.8950500488    266.6666564941     -7.9897670746     -7.9897670746
    479.8740539551    240.0000000000     -7.9930500984     -7.9930500984
    500.0000000000    266.6666564941     -7.9897670746     -7.9897670746
    500.0000000000    293.3333435059     -7.9888181686     -7.9888181686
    479.9160156250    293.3333435059     -7.9888181686     -7.9888181686
    479.8950500488    266.6666564941     -7.9897670746     -7.9897670746
    500.0000000000    293.3333435059     -7.9888181686     -7.9888181686
    500.0000000000    320.0000000000     -7.9825406075     -7.9825406075
    479.9370422363    320.0000000000     -7.9825406075     -7.9825406075
    479.9160156250    293.3333435059     -7.9888181686     -7.9888181686
    500.0000000000    320.0000000000     -7.9825406075     -7.9825406075
    500.0000000000    346.6666564941     -7.9818129539     -7.9818129539
    479.9580078125    346.6666564941     -7.9818129539     -7.9818129539
    479.9370422363    320.0000000000     -7.9825406075     -7.9825406075
    500.0000000000    346.6666564941     -7.9818129539     -7.9818129539
    500.0000000000    373.3333435059     -7.9815549850     -7.9815549850
    479.9790039062    373.3333435059     -7.9815549850     -7.9815549850
    479.9580078125    346.6666564941     -7.9818129539     -7.9818129539
    500.0000000000    373.3333435059     -7.9815549850     -7.9815549850
    500.0000000000    400.0000000000     -7.9815549850     -7.9815549850
    480.0000000000    400.0000000000     -7.9815549850     -7.9815549850
    479.9790039062    373.3333435059     -7.9815549850     -7.9815549850
    479.6851196289      0.0000000000     -8.0700769424     -8.0700769424
    479.7061157227     26.6666698456     -8.0700769424     -8.0700769424
    459.4122314453     26.6666698456     -6.0707721710     -6.0707721710
    459.3702392578      0.0000000000     -6.0707721710     -6.0707721710
    479.7061157227     26.6666698456     -8.0700769424     -8.0700769424
    479.7271118164     53.3333282471     -8.0722351074     -8.0722351074
    459.4542236328     53.3333282471     -6.0800175667     -6.0800175667
    459.4122314453     26.6666698456     -6.0707721710     -6.0707721710
    479.7271118164     53.3333282471     -8.0722351074     -8.0722351074
    479.7481079102     80.0000000000     -8.0540742874     -8.0540742874
    459.4961853027     80.0000000000     -6.0763654709     -6.0763654709
    459.4542236328     53.3333282471     -6.0800175667     -6.0800175667
    479.7481079102     80.0000000000     -8.0540742874     -8.0540742874
    479.7691040039    106.6666717529     -8.0371341705     -8.0371341705
    459.5381774902    106.6666717529     -6.0546722412     -6.0546722412
    459.4961853027     80.0000000000     -6.0763654709     -6.0763654709
    479.7691040039    106.6666717529     -8.0371341705     -8.0371341705
    479.7900695801    133.3333282471     -8.0402202606     -8.0402202606
    459.5801696777    133.3333282471     -6.0225844383     -6.0225844383
    459.5381774902    106.6666717529     -6.0546722412     -6.0546722412
    479.7900695801    133.3333282471     -8.0402202606     -8.0402202606
    479.8110656738    160.0000000000     -8.0209999084     -8.0209999084
    459.6221618652    160.0000000000     -5.9952273369     -5.9952273369
    459.5801696777    133.3333282471     -6.0225844383     -6.0225844383
    479.8110656738    160.0000000000     -8.0209999084     -8.0209999084
    479.8320617676    186.6666717529     -7.9983606339     -7.9983606339
    459.6641235352    186.6666717529     -5.9890699387     -5.9890699387
    459.6221618652    160.0000000000     -5.9952273369     -5.9952273369
    479.8320617676    186.6666717529     -7.9983606339     -7.9983606339
    479.8530578613    213.3333282471     -7.9962897301     -7.9962897301
    459.7061157227    213.3333282471     -6.0106949806     -6.0106949806
    459.6641235352    186.6666717529     -5.9890699387     -5.9890699387
    479.8530578613    213.3333282471     -7.9962897301     -7.9962897301
    479.8740539551    240.0000000000     -7.9930500984     -7.9930500984
    459.7481079102    240.0000000000     -6.0502176285     -6.0502176285
    459.7061157227    213.3333282471     -6.0106949806     -6.0106949806
    479.8740539551    240.0000000000     -7.9930500984     -7.9930500984
    479.8950500488    266.6666564941     -7.9897670746     -7.9897670746
    459.7900695801    266.6666564941     -6.0881648064     -6.0881648064
    459.7481079102    240.0000000000     -6.0502176285     -6.0502176285
    479.8950500488    266.6666564941     -7.9897670746     -7.9897670746
    479.9160156250    293.3333435059     -7.9888181686     -7.9888181686
    459.8320617676    293.3333435059     -6.1056427956     -6.1056427956
    459.7900695801    266.6666564941     -6.0881648064     -6.0881648064
    479.9160156250    293.3333435059     -7.9888181686     -7.9888181686
    479.9370422363    320.0000000000     -7.9825406075     -7.9825406075
    459.8740539551    320.0000000000     -6.0953702927     -6.0953702927
    459.8320617676    293.3333435059     -6.1056427956     -6.1056427956
    479.9370422363    320.0000000000     -7.9825406075     -7.9825406075
    479.9580078125    346.6666564941     -7.9818129539     -7.9818129539
    459.9160156250    346.6666564941     -6.0683922768     -6.0683922768
    459.8740539551    320.0000000000     -6.0953702927     -6.0953702927
    479.9580078125    346.6666564941     -7.9818129539     -7.9818129539
    479.9790039062    373.3333435059     -7.9815549850     -7.9815549850
    459.9580078125    373.3333435059     -6.0335178375     -6.0335178375
    459.9160156250    346.6666564941     -6.0683922768     -6.0683922768
    479.9790039062    373.3333435059     -7.9815549850     -7.9815549850
    480.0000000000    400.0000000000     -7.9815549850     -7.9815549850
    460.0000000000    400.0000000000     -6.0335178375     -6.0335178375
    459.9580078125    373.3333435059     -6.0335178375     -6.0335178375
    459.3702392578      0.0000000000     -6.0707721710     -6.0707721710
    459.4122314453     26.6666698456     -6.0707721710     -6.0707721710
    439.1183471680     26.6666698456     -3.3462953568     -3.3462953568
    439.0553588867      0.0000000000     -3.3462953568     -3.3462953568
    459.4122314453     26.6666698456     -6.0707721710     -6.0707721710
    459.4542236328     53.3333282471     -6.0800175667     -6.0800175667
    439.1813049316     53.3333282471     -3.3338901997     -3.3338901997
    439.1183471680     26.6666698456     -3.3462953568     -3.3462953568
    459.4542236328     53.3333282471     -6.0800175667     -6.0800175667
    459.4961853027     80.0000000000     -6.0763654709     -6.0763654709
    439.2442932129     80.0000000000     -3.3534724712     -3.3534724712
    439.1813049316     53.3333282471     -3.3338901997     -3.3338901997
    459.4961853027     80.0000000000     -6.0763654709     -6.0763654709
    459.5381774902    106.6666717529     -6.0546722412     -6.0546722412
    439.3072814941    106.6666717529     -3.4234399796     -3.4234399796
    439.2442932129     80.0000000000     -3.3534724712     -3.3534724712
    459.5381774902    106.6666717529     -6.0546722412     -6.0546722412
    459.5801696777    133.3333282471     -6.0225844383     -6.0225844383
    439.3702392578    133.3333282471     -3.5233826637     -3.5233826637
    439.3072814941    106.6666717529     -3.4234399796     -3.4234399796
    459.5801696777    133.3333282471     -6.0225844383     -6.0225844383
    459.6221618652    160.0000000000     -5.9952273369     -5.9952273369
    439.4332275391    160.0000000000     -3.6066751480     -3.6066751480
    439.3702392578    133.3333282471     -3.5233826637     -3.5233826637
    459.6221618652    160.0000000000     -5.9952273369     -5.9952273369
    459.6641235352    186.6666717529     -5.9890699387     -5.9890699387
    439.4961853027    186.6666717529     -3.6279177666     -3.6279177666
    439.4332275391    160.0000000000     -3.6066751480     -3.6066751480
    459.6641235352    186.6666717529     -5.9890699387     -5.9890699387
    459.7061157227    213.3333282471     -6.0106949806     -6.0106949806
    439.5591735840    213.3333282471     -3.5690801144     -3.5690801144
    439.4961853027    186.6666717529     -3.6279177666     -3.6279177666
    459.7061157227    213.3333282471     -6.0106949806     -6.0106949806
    459.7481079102    240.0000000000     -6.0502176285     -6.0502176285
    439.6221618652    240.0000000000     -3.4562473297     -3.4562473297
    439.5591735840    213.3333282471     -3.5690801144     -3.5690801144
    459.7481079102    240.0000000000     -6.0502176285     -6.0502176285
    459.7900695801    266.6666564941     -6.0881648064     -6.0881648064
    439.6851196289    266.6666564941     -3.3556525707     -3.3556525707
    439.6221618652    240.0000000000     -3.4562473297     -3.4562473297
    459.7900695801    266.6666564941     -6.0881648064     -6.0881648064
    459.8320617676    293.3333435059     -6.1056427956     -6.1056427956
    439.7481079102    293.3333435059     -3.3377850056     -3.3377850056
    439.6851196289    266.6666564941     -3.3556525707     -3.3556525707
    459.8320617676    293.3333435059     -6.1056427956     -6.1056427956
    459.8740539551    320.0000000000     -6.0953702927     -6.0953702927
    439.8110656738    320.0000000000     -3.4248600006     -3.4248600006
    439.7481079102    293.3333435059     -3.3377850056     -3.3377850056
    459.8740539551    320.0000000000     -6.0953702927     -6.0953702927
    459.9160156250    346.6666564941     -6.0683922768     -6.0683922768
    439.8740539551    346.6666564941     -3.5671000481     -3.5671000481
    439.8110656738    320.0000000000     -3.4248600006     -3.4248600006
    459.9160156250    346.6666564941     -6.0683922768     -6.0683922768
    459.9580078125    373.3333435059     -6.0335178375     -6.0335178375
    439.9370422363    373.3333435059     -3.6568176746     -3.6568176746
    439.8740539551    346.6666564941     -3.5671000481     -3.5671000481
    459.9580078125    373.3333435059     -6.0335178375     -6.0335178375
    460.0000000000    400.0000000000     -6.0335178375     -6.0335178375
    440.0000000000    400.0000000000     -3.6568176746     -3.6568176746
    439.9370422363    373.3333435059     -3.6568176746     -3.6568176746
    439.0553588867      0.0000000000     -3.3462953568     -3.3462953568
    439.1183471680     26.6666698456     -3.3462953568     -3.3462953568
    418.8244628906     26.6666698456     -1.7976549864     -1.7976549864
    418.7405090332      0.0000000000     -1.7976549864     -1.7976549864
    439.1183471680     26.6666698456     -3.3462953568     -3.3462953568
    439.1813049316     53.3333282471     -3.3338901997     -3.3338901997
    418.9084167480     53.3333282471     -2.1638424397     -2.1638424397
    418.8244628906     26.6666698456     -1.7976549864     -1.7976549864
    439.1813049316     53.3333282471     -3.3338901997     -3.3338901997
    439.2442932129     80.0000000000     -3.3534724712     -3.3534724712
    418.9924011230     80.0000000000     -2.0207149982     -2.0207149982
    418.9084167480     53.3333282471     -2.1638424397     -2.1638424397
    439.2442932129     80.0000000000     -3.3534724712     -3.3534724712
    439.3072814941    106.6666717529     -3.4234399796     -3.4234399796
    419.0763549805    106.6666717529     -1.0572173595     -1.0572173595
    418.9924011230     80.0000000000     -2.0207149982     -2.0207149982
    439.3072814941    106.6666717529     -3.4234399796     -3.4234399796
    439.3702392578    133.3333282471     -3.5233826637     -3.5233826637
    419.1603393555    133.3333282471      0.4118600488      0.4118600488
    419.0763549805    106.6666717529     -1.0572173595     -1.0572173595
    439.3702392578    133.3333282471     -3.5233826637     -3.5233826637
    439.4332275391    160.0000000000     -3.6066751480     -3.6066751480
    419.2442932129    160.0000000000      1.6518101692      1.6518101692
    419.1603393555    133.3333282471      0.4118600488      0.4118600488
    439.4332275391    160.0000000000     -3.6066751480     -3.6066751480
    439.4961853027    186.6666717529     -3.6279177666     -3.6279177666
    419.3282775879    186.6666717529      1.9655025005      1.9655025005
    419.2442932129    160.0000000000      1.6518101692      1.6518101692
    439.4961853027    186.6666717529     -3.6279177666     -3.6279177666
    439.5591735840    213.3333282471     -3.5690801144     -3.5690801144
    419.4122314453    213.3333282471      1.1048200130      1.1048200130
    419.3282775879    186.6666717529      1.9655025005      1.9655025005
    439.5591735840    213.3333282471     -3.5690801144     -3.5690801144
    439.6221618652    240.0000000000     -3.4562473297     -3.4562473297
    419.4961853027    240.0000000000     -0.5392925143     -0.5392925143
    419.4122314453    213.3333282471      1.1048200130      1.1048200130
    439.6221618652    240.0000000000     -3.4562473297     -3.4562473297
    439.6851196289    266.6666564941     -3.3556525707     -3.3556525707
    419.5801696777    266.6666564941     -2.0696249008     -2.0696249008
    419.4961853027    240.0000000000     -0.5392925143     -0.5392925143
    439.6851196289    266.6666564941     -3.3556525707     -3.3556525707
    439.7481079102    293.3333435059     -3.3377850056     -3.3377850056
    419.6641235352    293.3333435059     -2.5651998520     -2.5651998520
    419.5801696777    266.6666564941     -2.0696249008     -2.0696249008
    439.7481079102    293.3333435059     -3.3377850056     -3.3377850056
    439.8110656738    320.0000000000     -3.4248600006     -3.4248600006
    419.7481079102    320.0000000000     -1.7107899189     -1.7107899189
    419.6641235352    293.3333435059     -2.5651998520     -2.5651998520
    439.8110656738    320.0000000000     -3.4248600006     -3.4248600006
    439.8740539551    346.6666564941     -3.5671000481     -3.5671000481
    419.8320617676    346.6666564941     -0.0943049788     -0.0943049788
    419.7481079102    320.0000000000     -1.7107899189     -1.7107899189
    439.8740539551    346.6666564941     -3.5671000481     -3.5671000481
    439.9370422363    373.3333435059     -3.6568176746     -3.6568176746
    419.9160156250    373.3333435059      1.1752049923      1.1752049923
    419.8320617676    346.6666564941     -0.0943049788     -0.0943049788
    439.9370422363    373.3333435059     -3.6568176746     -3.6568176746
    440.0000000000    400.0000000000     -3.6568176746     -3.6568176746
    420.0000000000    400.0000000000      1.1752049923      1.1752049923
    419.9160156250    373.3333435059      1.1752049923      1.1752049923
    418.7405090332      0.0000000000     -1.7976549864     -1.7976549864
    418.8244628906     26.6666698456     -1.7976549864     -1.7976549864
    398.5305786133     26.6666698456     -1.8025124073     -1.8025124073
    398.4256286621      0.0000000000     -1.8025124073     -1.8025124073
    418.8244628906     26.6666698456     -1.7976549864     -1.7976549864
    418.9084167480     53.3333282471     -2.1638424397     -2.1638424397
    398.6355285645     53.3333282471     -4.1435875893     -4.1435875893
    398.5305786133     26.6666698456     -1.8025124073     -1.8025124073
    418.9084167480     53.3333282471     -2.1638424397     -2.1638424397
    418.9924011230     80.0000000000     -2.0207149982     -2.0207149982
    398.7405090332     80.0000000000     -4.7423353195     -4.7423353195
    398.6355285645     53.3333282471     -4.1435875893     -4.1435875893
    418.9924011230     80.0000000000     -2.0207149982     -2.0207149982
    419.0763549805    106.6666717529     -1.0572173595     -1.0572173595
    398.8454589844    106.6666717529     -2.0549199581     -2.0549199581
    398.7405090332     80.0000000000     -4.7423353195     -4.7423353195
    419.0763549805    106.6666717529     -1.0572173595     -1.0572173595
    419.1603393555    133.3333282471      0.4118600488      0.4118600488
    398.9504089355    133.3333282471      2.8777201176      2.8777201176
    398.8454589844    106.6666717529     -2.0549199581     -2.0549199581
    419.1603393555    133.3333282471      0.4118600488      0.4118600488
    419.2442932129    160.0000000000      1.6518101692      1.6518101692
    399.0553588867    160.0000000000      7.3687477112      7.3687477112
    398.9504089355    133.3333282471      2.8777201176      2.8777201176
    419.2442932129    160.0000000000      1.6518101692      1.6518101692
    419.3282775879    186.6666717529      1.9655025005      1.9655025005
    399.1603393555    186.6666717529      9.0899553299      9.0899553299
    399.0553588867    160.0000000000      7.3687477112      7.3687477112
    419.3282775879    186.6666717529      1.9655025005      1.9655025005
    419.4122314453    213.3333282471      1.1048200130      1.1048200130
    399.2652893066    213.3333282471      7.4693450928      7.4693450928
    399.1603393555    186.6666717529      9.0899553299      9.0899553299
    419.4122314453    213.3333282471      1.1048200130      1.1048200130
    419.4961853027    240.0000000000     -0.5392925143     -0.5392925143
    399.3702392578    240.0000000000      3.7096252441      3.7096252441
    399.2652893066    213.3333282471      7.4693450928      7.4693450928
    419.4961853027    240.0000000000     -0.5392925143     -0.5392925143
    419.5801696777    266.6666564941     -2.0696249008     -2.0696249008
    399.4752197266    266.6666564941     -0.0747400522     -0.0747400522
    399.3702392578    240.0000000000      3.7096252441      3.7096252441
    419.5801696777    266.6666564941     -2.0696249008     -2.0696249008
    419.6641235352    293.3333435059     -2.5651998520     -2.5651998520
    399.5801696777    293.3333435059     -1.8613948822     -1.8613948822
    399.4752197266    266.6666564941     -0.0747400522     -0.0747400522
    419.6641235352    293.3333435059     -2.5651998520     -2.5651998520
    419.7481079102    320.0000000000     -1.7107899189     -1.7107899189
    399.6851196289    320.0000000000     -0.7257325649     -0.7257325649
    399.5801696777    293.3333435059     -1.8613948822     -1.8613948822
    419.7481079102    320.0000000000     -1.7107899189     -1.7107899189
    419.8320617676    346.6666564941     -0.0943049788     -0.0943049788
    399.7900695801    346.6666564941      2.5114350319      2.5114350319
    399.6851196289    320.0000000000     -0.7257325649     -0.7257325649
    419.8320617676    346.6666564941     -0.0943049788     -0.0943049788
    419.9160156250    373.3333435059      1.1752049923      1.1752049923
    399.8950500488    373.3333435059      5.6249599457      5.6249599457
    399.7900695801    346.6666564941      2.5114350319      2.5114350319
    419.9160156250    373.3333435059      1.1752049923      1.1752049923
    420.0000000000    400.0000000000      1.1752049923      1.1752049923
    400.0000000000    400.0000000000      5.6249599457      5.6249599457
    399.8950500488    373.3333435059      5.6249599457      5.6249599457
    398.4256286621      0.0000000000     -1.8025124073     -1.8025124073
    398.5305786133     26.6666698456     -1.8025124073     -1.8025124073
    378.2366943359     26.6666698456      3.7604551315      3.7604551315
    378.1107482910      0.0000000000      3.7604551315      3.7604551315
    398.5305786133     26.6666698456     -1.8025124073     -1.8025124073
    398.6355285645     53.3333282471     -4.1435875893     -4.1435875893
    378.3626403809     53.3333282471      0.0981900096      0.0981900096
    378.2366943359     26.6666698456      3.7604551315      3.7604551315
    398.6355285645     53.3333282471     -4.1435875893     -4.1435875893
    398.7405090332     80.0000000000     -4.7423353195     -4.7423353195
    378.4885864258     80.0000000000     -2.2471225262     -2.2471225262
    378.3626403809     53.3333282471      0.0981900096      0.0981900096
    398.7405090332     80.0000000000     -4.7423353195     -4.7423353195
    398.8454589844    106.6666717529     -2.0549199581     -2.0549199581
    378.6145629883    106.6666717529     -1.3170400858     -1.3170400858
    378.4885864258     80.0000000000     -2.2471225262     -2.2471225262
    398.8454589844    106.6666717529     -2.0549199581     -2.0549199581
    398.9504089355    133.3333282471      2.8777201176      2.8777201176
    378.7405090332    133.3333282471      2.0017924309      2.0017924309
    378.6145629883    106.6666717529     -1.3170400858     -1.3170400858
    398.9504089355    133.3333282471      2.8777201176      2.8777201176
    399.0553588867    160.0000000000      7.3687477112      7.3687477112
    378.8664550781    160.0000000000      5.2267899513      5.2267899513
    378.7405090332    133.3333282471      2.0017924309      2.0017924309
    399.0553588867    160.0000000000      7.3687477112      7.3687477112
    399.1603393555    186.6666717529      9.0899553299      9.0899553299
    378.9924011230    186.6666717529      6.8461651802      6.8461651802
    378.8664550781    160.0000000000      5.2267899513      5.2267899513
    399.1603393555    186.6666717529      9.0899553299      9.0899553299
    399.2652893066    213.3333282471      7.4693450928      7.4693450928
    379.1183471680    213.3333282471      7.3827505112      7.3827505112
    378.9924011230    186.6666717529      6.8461651802      6.8461651802
    399.2652893066    213.3333282471      7.4693450928      7.4693450928
    399.3702392578    240.0000000000      3.7096252441      3.7096252441
    379.2442932129    240.0000000000      7.9003224373      7.9003224373
    379.1183471680    213.3333282471      7.3827505112      7.3827505112
    399.3702392578    240.0000000000      3.7096252441      3.7096252441
    399.4752197266    266.6666564941     -0.0747400522     -0.0747400522
    379.3702392578    266.6666564941      8.1576080322      8.1576080322
    379.2442932129    240.0000000000      7.9003224373      7.9003224373
    399.4752197266    266.6666564941     -0.0747400522     -0.0747400522
    399.5801696777    293.3333435059     -1.8613948822     -1.8613948822
    379.4961853027    293.3333435059      7.0029125214      7.0029125214
    379.3702392578    266.6666564941      8.1576080322      8.1576080322
    399.5801696777    293.3333435059     -1.8613948822     -1.8613948822
    399.6851196289    320.0000000000     -0.7257325649     -0.7257325649
    379.6221618652    320.0000000000      4.3275327682      4.3275327682
    379.4961853027    293.3333435059      7.0029125214      7.0029125214
    399.6851196289    320.0000000000     -0.7257325649     -0.7257325649
    399.7900695801    346.6666564941      2.5114350319      2.5114350319
    379.7481079102    346.6666564941      1.8653324842      1.8653324842
    379.6221618652    320.0000000000      4.3275327682      4.3275327682
    399.7900695801    346.6666564941      2.5114350319      2.5114350319
    399.8950500488    373.3333435059      5.6249599457      5.6249599457
    379.8740539551    373.3333435059      1.5795848370      1.5795848370
    379.7481079102    346.6666564941      1.8653324842      1.8653324842
    399.8950500488    373.3333435059      5.6249599457      5.6249599457
    400.0000000000    400.0000000000      5.6249599457      5.6249599457
    380.0000000000    400.0000000000      1.5795848370      1.5795848370
    379.8740539551    373.3333435059      1.5795848370      1.5795848370
    378.1107482910      0.0000000000      3.7604551315      3.7604551315
    378.2366943359     26.6666698456      3.7604551315      3.7604551315
    357.9428100586     26.6666698456     12.5965375900     12.5965375900
    357.7958679199      0.0000000000     12.5965375900     12.5965375900
    378.2366943359     26.6666698456      3.7604551315      3.7604551315
    378.3626403809     53.3333282471      0.0981900096      0.0981900096
    358.0897521973     53.3333282471     12.9808750153     12.9808750153
    357.9428100586     26.6666698456     12.5965375900     12.5965375900
    378.3626403809     53.3333282471      0.0981900096      0.0981900096
    378.4885864258     80.0000000000     -2.2471225262     -2.2471225262
    358.2366943359     80.0000000000     12.2127952576     12.2127952576
    358.0897521973     53.3333282471     12.9808750153     12.9808750153
    378.4885864258     80.0000000000     -2.2471225262     -2.2471225262
    378.6145629883    106.6666717529     -1.3170400858     -1.3170400858
    358.3836364746    106.6666717529      9.7028923035      9.7028923035
    358.2366943359     80.0000000000     12.2127952576     12.2127952576
    378.6145629883    106.6666717529     -1.3170400858     -1.3170400858
    378.7405090332    133.3333282471      2.0017924309      2.0017924309
    358.5305786133    133.3333282471      5.6781854630      5.6781854630
    358.3836364746    106.6666717529      9.7028923035      9.7028923035
    378.7405090332    133.3333282471      2.0017924309      2.0017924309
    378.8664550781    160.0000000000      5.2267899513      5.2267899513
    358.6775207520    160.0000000000      1.3251147270      1.3251147270
    358.5305786133    133.3333282471      5.6781854630      5.6781854630
    378.8664550781    160.0000000000      5.2267899513      5.2267899513
    378.9924011230    186.6666717529      6.8461651802      6.8461651802
    358.8244628906    186.6666717529     -1.0027725697     -1.0027725697
    358.6775207520    160.0000000000      1.3251147270      1.3251147270
    378.9924011230    186.6666717529      6.8461651802      6.8461651802
    379.1183471680    213.3333282471      7.3827505112      7.3827505112
    358.9714050293    213.3333282471      1.1984424591      1.1984424591
    358.8244628906    186.6666717529     -1.0027725697     -1.0027725697
    379.1183471680    213.3333282471      7.3827505112      7.3827505112
    379.2442932129    240.0000000000      7.9003224373      7.9003224373
    359.1183471680    240.0000000000      8.0417699814      8.0417699814
    358.9714050293    213.3333282471      1.1984424591      1.1984424591
    379.2442932129    240.0000000000      7.9003224373      7.9003224373
    379.3702392578    266.6666564941      8.1576080322      8.1576080322
    359.2652893066    266.6666564941     15.5473327637     15.5473327637
    359.1183471680    240.0000000000      8.0417699814      8.0417699814
    379.3702392578    266.6666564941      8.1576080322      8.1576080322
    379.4961853027    293.3333435059      7.0029125214      7.0029125214
    359.4122314453    293.3333435059     17.7299900055     17.7299900055
    359.2652893066    266.6666564941     15.5473327637     15.5473327637
    379.4961853027    293.3333435059      7.0029125214      7.0029125214
    379.6221618652    320.0000000000      4.3275327682      4.3275327682
    359.5591735840    320.0000000000     11.8919248581     11.8919248581
    359.4122314453    293.3333435059     17.7299900055     17.7299900055