 VARIABLES= "X","Y","Z","yita"  
ZONE N=                                        3000 E=                              750 F=FEPOINT, ET=QUADRILATERAL
    500.0000000000      0.0000000000     -8.8824424744     -8.8824424744
    500.0000000000     26.6666698456     -8.8824424744     -8.8824424744
    479.7061157227     26.6666698456     -8.8824424744     -8.8824424744
    479.6851196289      0.0000000000     -8.8824424744     -8.8824424744
    500.0000000000     26.6666698456     -8.8824424744     -8.8824424744
    500.0000000000     53.3333282471     -8.8843202591     -8.8843202591
    479.7271118164     53.3333282471     -8.8843202591     -8.8843202591
    479.7061157227     26.6666698456     -8.8824424744     -8.8824424744
    500.0000000000     53.3333282471     -8.8843202591     -8.8843202591
    500.0000000000     80.0000000000     -8.8694171906     -8.8694171906
    479.7481079102     80.0000000000     -8.8694171906     -8.8694171906
    479.7271118164     53.3333282471     -8.8843202591     -8.8843202591
    500.0000000000     80.0000000000     -8.8694171906     -8.8694171906
    500.0000000000    106.6666717529     -8.8563203812     -8.8563203812
    479.7691040039    106.6666717529     -8.8563203812     -8.8563203812
    479.7481079102     80.0000000000     -8.8694171906     -8.8694171906
    500.0000000000    106.6666717529     -8.8563203812     -8.8563203812
    500.0000000000    133.3333282471     -8.8603372574     -8.8603372574
    479.7900695801    133.3333282471     -8.8603372574     -8.8603372574
    479.7691040039    106.6666717529     -8.8563203812     -8.8563203812
    500.0000000000    133.3333282471     -8.8603372574     -8.8603372574
    500.0000000000    160.0000000000     -8.8417224884     -8.8417224884
    479.8110656738    160.0000000000     -8.8417224884     -8.8417224884
    479.7900695801    133.3333282471     -8.8603372574     -8.8603372574
    500.0000000000    160.0000000000     -8.8417224884     -8.8417224884
    500.0000000000    186.6666717529     -8.8199052811     -8.8199052811
    479.8320617676    186.6666717529     -8.8199052811     -8.8199052811
    479.8110656738    160.0000000000     -8.8417224884     -8.8417224884
    500.0000000000    186.6666717529     -8.8199052811     -8.8199052811
    500.0000000000    213.3333282471     -8.8186750412     -8.8186750412
    479.8530578613    213.3333282471     -8.8186750412     -8.8186750412
    479.8320617676    186.6666717529     -8.8199052811     -8.8199052811
    500.0000000000    213.3333282471     -8.8186750412     -8.8186750412
    500.0000000000    240.0000000000     -8.8132724762     -8.8132724762
    479.8740539551    240.0000000000     -8.8132724762     -8.8132724762
    479.8530578613    213.3333282471     -8.8186750412     -8.8186750412
    500.0000000000    240.0000000000     -8.8132724762     -8.8132724762
    500.0000000000    266.6666564941     -8.8071699142     -8.8071699142
    479.8950500488    266.6666564941     -8.8071699142     -8.8071699142
    479.8740539551    240.0000000000     -8.8132724762     -8.8132724762
    500.0000000000    266.6666564941     -8.8071699142     -8.8071699142
    500.0000000000    293.3333435059     -8.8057899475     -8.8057899475
    479.9160156250    293.3333435059     -8.8057899475     -8.8057899475
    479.8950500488    266.6666564941     -8.8071699142     -8.8071699142
    500.0000000000    293.3333435059     -8.8057899475     -8.8057899475
    500.0000000000    320.0000000000     -8.7966222763     -8.7966222763
    479.9370422363    320.0000000000     -8.7966222763     -8.7966222763
    479.9160156250    293.3333435059     -8.8057899475     -8.8057899475
    500.0000000000    320.0000000000     -8.7966222763     -8.7966222763
    500.0000000000    346.6666564941     -8.7940502167     -8.7940502167
    479.9580078125    346.6666564941     -8.7940502167     -8.7940502167
    479.9370422363    320.0000000000     -8.7966222763     -8.7966222763
    500.0000000000    346.6666564941     -8.7940502167     -8.7940502167
    500.0000000000    373.3333435059     -8.7944154739     -8.7944154739
    479.9790039062    373.3333435059     -8.7944154739     -8.7944154739
    479.9580078125    346.6666564941     -8.7940502167     -8.7940502167
    500.0000000000    373.3333435059     -8.7944154739     -8.7944154739
    500.0000000000    400.0000000000     -8.7944154739     -8.7944154739
    480.0000000000    400.0000000000     -8.7944154739     -8.7944154739
    479.9790039062    373.3333435059     -8.7944154739     -8.7944154739
    479.6851196289      0.0000000000     -8.8824424744     -8.8824424744
    479.7061157227     26.6666698456     -8.8824424744     -8.8824424744
    459.4122314453     26.6666698456     -7.3983249664     -7.3983249664
    459.3702392578      0.0000000000     -7.3983249664     -7.3983249664
    479.7061157227     26.6666698456     -8.8824424744     -8.8824424744
    479.7271118164     53.3333282471     -8.8843202591     -8.8843202591
    459.4542236328     53.3333282471     -7.4108619690     -7.4108619690
    459.4122314453     26.6666698456     -7.3983249664     -7.3983249664
    479.7271118164     53.3333282471     -8.8843202591     -8.8843202591
    479.7481079102     80.0000000000     -8.8694171906     -8.8694171906
    459.4961853027     80.0000000000     -7.4109148979     -7.4109148979
    459.4542236328     53.3333282471     -7.4108619690     -7.4108619690
    479.7481079102     80.0000000000     -8.8694171906     -8.8694171906
    479.7691040039    106.6666717529     -8.8563203812     -8.8563203812
    459.5381774902    106.6666717529     -7.3904724121     -7.3904724121
    459.4961853027     80.0000000000     -7.4109148979     -7.4109148979
    479.7691040039    106.6666717529     -8.8563203812     -8.8563203812
    479.7900695801    133.3333282471     -8.8603372574     -8.8603372574
    459.5801696777    133.3333282471     -7.3563055992     -7.3563055992
    459.5381774902    106.6666717529     -7.3904724121     -7.3904724121
    479.7900695801    133.3333282471     -8.8603372574     -8.8603372574
    479.8110656738    160.0000000000     -8.8417224884     -8.8417224884
    459.6221618652    160.0000000000     -7.3252773285     -7.3252773285
    459.5801696777    133.3333282471     -7.3563055992     -7.3563055992
    479.8110656738    160.0000000000     -8.8417224884     -8.8417224884
    479.8320617676    186.6666717529     -8.8199052811     -8.8199052811
    459.6641235352    186.6666717529     -7.3152227402     -7.3152227402
    459.6221618652    160.0000000000     -7.3252773285     -7.3252773285
    479.8320617676    186.6666717529     -8.8199052811     -8.8199052811
    479.8530578613    213.3333282471     -8.8186750412     -8.8186750412
    459.7061157227    213.3333282471     -7.3321475983     -7.3321475983
    459.6641235352    186.6666717529     -7.3152227402     -7.3152227402
    479.8530578613    213.3333282471     -8.8186750412     -8.8186750412
    479.8740539551    240.0000000000     -8.8132724762     -8.8132724762
    459.7481079102    240.0000000000     -7.3656120300     -7.3656120300
    459.7061157227    213.3333282471     -7.3321475983     -7.3321475983
    479.8740539551    240.0000000000     -8.8132724762     -8.8132724762
    479.8950500488    266.6666564941     -8.8071699142     -8.8071699142
    459.7900695801    266.6666564941     -7.3981347084     -7.3981347084
    459.7481079102    240.0000000000     -7.3656120300     -7.3656120300
    479.8950500488    266.6666564941     -8.8071699142     -8.8071699142
    479.9160156250    293.3333435059     -8.8057899475     -8.8057899475
    459.8320617676    293.3333435059     -7.4142923355     -7.4142923355
    459.7900695801    266.6666564941     -7.3981347084     -7.3981347084
    479.9160156250    293.3333435059     -8.8057899475     -8.8057899475
    479.9370422363    320.0000000000     -8.7966222763     -8.7966222763
    459.8740539551    320.0000000000     -7.4075269699     -7.4075269699
    459.8320617676    293.3333435059     -7.4142923355     -7.4142923355
    479.9370422363    320.0000000000     -8.7966222763     -8.7966222763
    479.9580078125    346.6666564941     -8.7940502167     -8.7940502167
    459.9160156250    346.6666564941     -7.3854970932     -7.3854970932
    459.8740539551    320.0000000000     -7.4075269699     -7.4075269699
    479.9580078125    346.6666564941     -8.7940502167     -8.7940502167
    479.9790039062    373.3333435059     -8.7944154739     -8.7944154739
    459.9580078125    373.3333435059     -7.3527846336     -7.3527846336
    459.9160156250    346.6666564941     -7.3854970932     -7.3854970932
    479.9790039062    373.3333435059     -8.7944154739     -8.7944154739
    480.0000000000    400.0000000000     -8.7944154739     -8.7944154739
    460.0000000000    400.0000000000     -7.3527846336     -7.3527846336
    459.9580078125    373.3333435059     -7.3527846336     -7.3527846336
    459.3702392578      0.0000000000     -7.3983249664     -7.3983249664
    459.4122314453     26.6666698456     -7.3983249664     -7.3983249664
    439.1183471680     26.6666698456     -5.0446147919     -5.0446147919
    439.0553588867      0.0000000000     -5.0446147919     -5.0446147919
    459.4122314453     26.6666698456     -7.3983249664     -7.3983249664
    459.4542236328     53.3333282471     -7.4108619690     -7.4108619690
    439.1813049316     53.3333282471     -5.0142879486     -5.0142879486
    439.1183471680     26.6666698456     -5.0446147919     -5.0446147919
    459.4542236328     53.3333282471     -7.4108619690     -7.4108619690
    459.4961853027     80.0000000000     -7.4109148979     -7.4109148979
    439.2442932129     80.0000000000     -5.0194826126     -5.0194826126
    439.1813049316     53.3333282471     -5.0142879486     -5.0142879486
    459.4961853027     80.0000000000     -7.4109148979     -7.4109148979
    459.5381774902    106.6666717529     -7.3904724121     -7.3904724121
    439.3072814941    106.6666717529     -5.0913801193     -5.0913801193
    439.2442932129     80.0000000000     -5.0194826126     -5.0194826126
    459.5381774902    106.6666717529     -7.3904724121     -7.3904724121
    459.5801696777    133.3333282471     -7.3563055992     -7.3563055992
    439.3702392578    133.3333282471     -5.2077798843     -5.2077798843
    439.3072814941    106.6666717529     -5.0913801193     -5.0913801193
    459.5801696777    133.3333282471     -7.3563055992     -7.3563055992
    459.6221618652    160.0000000000     -7.3252773285     -7.3252773285
    439.4332275391    160.0000000000     -5.3075175285     -5.3075175285
    439.3702392578    133.3333282471     -5.2077798843     -5.2077798843
    459.6221618652    160.0000000000     -7.3252773285     -7.3252773285
    459.6641235352    186.6666717529     -7.3152227402     -7.3152227402
    439.4961853027    186.6666717529     -5.3356747627     -5.3356747627
    439.4332275391    160.0000000000     -5.3075175285     -5.3075175285
    459.6641235352    186.6666717529     -7.3152227402     -7.3152227402
    459.7061157227    213.3333282471     -7.3321475983     -7.3321475983
    439.5591735840    213.3333282471     -5.2790598869     -5.2790598869
    439.4961853027    186.6666717529     -5.3356747627     -5.3356747627
    459.7061157227    213.3333282471     -7.3321475983     -7.3321475983
    459.7481079102    240.0000000000     -7.3656120300     -7.3656120300
    439.6221618652    240.0000000000     -5.1723828316     -5.1723828316
    439.5591735840    213.3333282471     -5.2790598869     -5.2790598869
    459.7481079102    240.0000000000     -7.3656120300     -7.3656120300
    459.7900695801    266.6666564941     -7.3981347084     -7.3981347084
    439.6851196289    266.6666564941     -5.0792374611     -5.0792374611
    439.6221618652    240.0000000000     -5.1723828316     -5.1723828316
    459.7900695801    266.6666564941     -7.3981347084     -7.3981347084
    459.8320617676    293.3333435059     -7.4142923355     -7.4142923355
    439.7481079102    293.3333435059     -5.0585451126     -5.0585451126
    439.6851196289    266.6666564941     -5.0792374611     -5.0792374611
    459.8320617676    293.3333435059     -7.4142923355     -7.4142923355
    459.8740539551    320.0000000000     -7.4075269699     -7.4075269699
    439.8110656738    320.0000000000     -5.1305651665     -5.1305651665
    439.7481079102    293.3333435059     -5.0585451126     -5.0585451126
    459.8740539551    320.0000000000     -7.4075269699     -7.4075269699
    459.9160156250    346.6666564941     -7.3854970932     -7.3854970932
    439.8740539551    346.6666564941     -5.2587327957     -5.2587327957
    439.8110656738    320.0000000000     -5.1305651665     -5.1305651665
    459.9160156250    346.6666564941     -7.3854970932     -7.3854970932
    459.9580078125    373.3333435059     -7.3527846336     -7.3527846336
    439.9370422363    373.3333435059     -5.3435726166     -5.3435726166
    439.8740539551    346.6666564941     -5.2587327957     -5.2587327957
    459.9580078125    373.3333435059     -7.3527846336     -7.3527846336
    460.0000000000    400.0000000000     -7.3527846336     -7.3527846336
    440.0000000000    400.0000000000     -5.3435726166     -5.3435726166
    439.9370422363    373.3333435059     -5.3435726166     -5.3435726166
    439.0553588867      0.0000000000     -5.0446147919     -5.0446147919
    439.1183471680     26.6666698456     -5.0446147919     -5.0446147919
    418.8244628906     26.6666698456     -3.7967026234     -3.7967026234
    418.7405090332      0.0000000000     -3.7967026234     -3.7967026234
    439.1183471680     26.6666698456     -5.0446147919     -5.0446147919
    439.1813049316     53.3333282471     -5.0142879486     -5.0142879486
    418.9084167480     53.3333282471     -4.3675103188     -4.3675103188
    418.8244628906     26.6666698456     -3.7967026234     -3.7967026234
    439.1813049316     53.3333282471     -5.0142879486     -5.0142879486
    439.2442932129     80.0000000000     -5.0194826126     -5.0194826126
    418.9924011230     80.0000000000     -4.4158625603     -4.4158625603
    418.9084167480     53.3333282471     -4.3675103188     -4.3675103188
    439.2442932129     80.0000000000     -5.0194826126     -5.0194826126
    439.3072814941    106.6666717529     -5.0913801193     -5.0913801193
    419.0763549805    106.6666717529     -3.4784898758     -3.4784898758
    418.9924011230     80.0000000000     -4.4158625603     -4.4158625603
    439.3072814941    106.6666717529     -5.0913801193     -5.0913801193
    439.3702392578    133.3333282471     -5.2077798843     -5.2077798843
    419.1603393555    133.3333282471     -1.8631575108     -1.8631575108
    419.0763549805    106.6666717529     -3.4784898758     -3.4784898758
    439.3702392578    133.3333282471     -5.2077798843     -5.2077798843
    439.4332275391    160.0000000000     -5.3075175285     -5.3075175285
    419.2442932129    160.0000000000     -0.4450476170     -0.4450476170
    419.1603393555    133.3333282471     -1.8631575108     -1.8631575108
    439.4332275391    160.0000000000     -5.3075175285     -5.3075175285
    439.4961853027    186.6666717529     -5.3356747627     -5.3356747627
    419.3282775879    186.6666717529     -0.0195200443     -0.0195200443
    419.2442932129    160.0000000000     -0.4450476170     -0.4450476170
    439.4961853027    186.6666717529     -5.3356747627     -5.3356747627
    439.5591735840    213.3333282471     -5.2790598869     -5.2790598869
    419.4122314453    213.3333282471     -0.7823350430     -0.7823350430
    419.3282775879    186.6666717529     -0.0195200443     -0.0195200443
    439.5591735840    213.3333282471     -5.2790598869     -5.2790598869
    439.6221618652    240.0000000000     -5.1723828316     -5.1723828316
    419.4961853027    240.0000000000     -2.2586123943     -2.2586123943
    419.4122314453    213.3333282471     -0.7823350430     -0.7823350430
    439.6221618652    240.0000000000     -5.1723828316     -5.1723828316
    439.6851196289    266.6666564941     -5.0792374611     -5.0792374611
    419.5801696777    266.6666564941     -3.6134476662     -3.6134476662
    419.4961853027    240.0000000000     -2.2586123943     -2.2586123943
    439.6851196289    266.6666564941     -5.0792374611     -5.0792374611
    439.7481079102    293.3333435059     -5.0585451126     -5.0585451126
    419.6641235352    293.3333435059     -4.1035728455     -4.1035728455
    419.5801696777    266.6666564941     -3.6134476662     -3.6134476662
    439.7481079102    293.3333435059     -5.0585451126     -5.0585451126
    439.8110656738    320.0000000000     -5.1305651665     -5.1305651665
    419.7481079102    320.0000000000     -3.4624876976     -3.4624876976
    419.6641235352    293.3333435059     -4.1035728455     -4.1035728455
    439.8110656738    320.0000000000     -5.1305651665     -5.1305651665
    439.8740539551    346.6666564941     -5.2587327957     -5.2587327957
    419.8320617676    346.6666564941     -2.0960576534     -2.0960576534
    419.7481079102    320.0000000000     -3.4624876976     -3.4624876976
    439.8740539551    346.6666564941     -5.2587327957     -5.2587327957
    439.9370422363    373.3333435059     -5.3435726166     -5.3435726166
    419.9160156250    373.3333435059     -0.9223924875     -0.9223924875
    419.8320617676    346.6666564941     -2.0960576534     -2.0960576534
    439.9370422363    373.3333435059     -5.3435726166     -5.3435726166
    440.0000000000    400.0000000000     -5.3435726166     -5.3435726166
    420.0000000000    400.0000000000     -0.9223924875     -0.9223924875
    419.9160156250    373.3333435059     -0.9223924875     -0.9223924875
    418.7405090332      0.0000000000     -3.7967026234     -3.7967026234
    418.8244628906     26.6666698456     -3.7967026234     -3.7967026234
    398.5305786133     26.6666698456     -3.4759073257     -3.4759073257
    398.4256286621      0.0000000000     -3.4759073257     -3.4759073257
    418.8244628906     26.6666698456     -3.7967026234     -3.7967026234
    418.9084167480     53.3333282471     -4.3675103188     -4.3675103188
    398.6355285645     53.3333282471     -6.0667448044     -6.0667448044
    398.5305786133     26.6666698456     -3.4759073257     -3.4759073257
    418.9084167480     53.3333282471     -4.3675103188     -4.3675103188
    418.9924011230     80.0000000000     -4.4158625603     -4.4158625603
    398.7405090332     80.0000000000     -7.1685829163     -7.1685829163
    398.6355285645     53.3333282471     -6.0667448044     -6.0667448044
    418.9924011230     80.0000000000     -4.4158625603     -4.4158625603
    419.0763549805    106.6666717529     -3.4784898758     -3.4784898758
    398.8454589844    106.6666717529     -4.9212150574     -4.9212150574
    398.7405090332     80.0000000000     -7.1685829163     -7.1685829163
    419.0763549805    106.6666717529     -3.4784898758     -3.4784898758
    419.1603393555    133.3333282471     -1.8631575108     -1.8631575108
    398.9504089355    133.3333282471     -0.0998675227     -0.0998675227
    398.8454589844    106.6666717529     -4.9212150574     -4.9212150574
    419.1603393555    133.3333282471     -1.8631575108     -1.8631575108
    419.2442932129    160.0000000000     -0.4450476170     -0.4450476170
    399.0553588867    160.0000000000      4.5013647079      4.5013647079
    398.9504089355    133.3333282471     -0.0998675227     -0.0998675227
    419.2442932129    160.0000000000     -0.4450476170     -0.4450476170
    419.3282775879    186.6666717529     -0.0195200443     -0.0195200443
    399.1603393555    186.6666717529      6.3854327202      6.3854327202
    399.0553588867    160.0000000000      4.5013647079      4.5013647079
    419.3282775879    186.6666717529     -0.0195200443     -0.0195200443
    419.4122314453    213.3333282471     -0.7823350430     -0.7823350430
    399.2652893066    213.3333282471      5.0839524269      5.0839524269
    399.1603393555    186.6666717529      6.3854327202      6.3854327202
    419.4122314453    213.3333282471     -0.7823350430     -0.7823350430
    419.4961853027    240.0000000000     -2.2586123943     -2.2586123943
    399.3702392578    240.0000000000      2.0269324780      2.0269324780
    399.2652893066    213.3333282471      5.0839524269      5.0839524269
    419.4961853027    240.0000000000     -2.2586123943     -2.2586123943
    419.5801696777    266.6666564941     -3.6134476662     -3.6134476662
    399.4752197266    266.6666564941     -0.8402525187     -0.8402525187
    399.3702392578    240.0000000000      2.0269324780      2.0269324780
    419.5801696777    266.6666564941     -3.6134476662     -3.6134476662
    419.6641235352    293.3333435059     -4.1035728455     -4.1035728455
    399.5801696777    293.3333435059     -2.2349100113     -2.2349100113
    399.4752197266    266.6666564941     -0.8402525187     -0.8402525187
    419.6641235352    293.3333435059     -4.1035728455     -4.1035728455
    419.7481079102    320.0000000000     -3.4624876976     -3.4624876976
    399.6851196289    320.0000000000     -1.7542250156     -1.7542250156
    399.5801696777    293.3333435059     -2.2349100113     -2.2349100113
    419.7481079102    320.0000000000     -3.4624876976     -3.4624876976
    419.8320617676    346.6666564941     -2.0960576534     -2.0960576534
    399.7900695801    346.6666564941      0.2384774834      0.2384774834
    399.6851196289    320.0000000000     -1.7542250156     -1.7542250156
    419.8320617676    346.6666564941     -2.0960576534     -2.0960576534
    419.9160156250    373.3333435059     -0.9223924875     -0.9223924875
    399.8950500488    373.3333435059      2.5212600231      2.5212600231
    399.7900695801    346.6666564941      0.2384774834      0.2384774834
    419.9160156250    373.3333435059     -0.9223924875     -0.9223924875
    420.0000000000    400.0000000000     -0.9223924875     -0.9223924875
    400.0000000000    400.0000000000      2.5212600231      2.5212600231
    399.8950500488    373.3333435059      2.5212600231      2.5212600231
    398.4256286621      0.0000000000     -3.4759073257     -3.4759073257
    398.5305786133     26.6666698456     -3.4759073257     -3.4759073257
    378.2366943359     26.6666698456      2.7344450951      2.7344450951
    378.1107482910      0.0000000000      2.7344450951      2.7344450951
    398.5305786133     26.6666698456     -3.4759073257     -3.4759073257
    398.6355285645     53.3333282471     -6.0667448044     -6.0667448044
    378.3626403809     53.3333282471     -0.0837898254     -0.0837898254
    378.2366943359     26.6666698456      2.7344450951      2.7344450951
    398.6355285645     53.3333282471     -6.0667448044     -6.0667448044
    398.7405090332     80.0000000000     -7.1685829163     -7.1685829163
    378.4885864258     80.0000000000     -2.3269896507     -2.3269896507
    378.3626403809     53.3333282471     -0.0837898254     -0.0837898254
    398.7405090332     80.0000000000     -7.1685829163     -7.1685829163
    398.8454589844    106.6666717529     -4.9212150574     -4.9212150574
    378.6145629883    106.6666717529     -2.3158252239     -2.3158252239
    378.4885864258     80.0000000000     -2.3269896507     -2.3269896507
    398.8454589844    106.6666717529     -4.9212150574     -4.9212150574
    398.9504089355    133.3333282471     -0.0998675227     -0.0998675227
    378.7405090332    133.3333282471     -0.2481375039     -0.2481375039
    378.6145629883    106.6666717529     -2.3158252239     -2.3158252239
    398.9504089355    133.3333282471     -0.0998675227     -0.0998675227
    399.0553588867    160.0000000000      4.5013647079      4.5013647079
    378.8664550781    160.0000000000      2.1748726368      2.1748726368
    378.7405090332    133.3333282471     -0.2481375039     -0.2481375039
    399.0553588867    160.0000000000      4.5013647079      4.5013647079
    399.1603393555    186.6666717529      6.3854327202      6.3854327202
    378.9924011230    186.6666717529      3.6709353924      3.6709353924
    378.8664550781    160.0000000000      2.1748726368      2.1748726368
    399.1603393555    186.6666717529      6.3854327202      6.3854327202
    399.2652893066    213.3333282471      5.0839524269      5.0839524269
    379.1183471680    213.3333282471      4.5640902519      4.5640902519
    378.9924011230    186.6666717529      3.6709353924      3.6709353924
    399.2652893066    213.3333282471      5.0839524269      5.0839524269
    399.3702392578    240.0000000000      2.0269324780      2.0269324780
    379.2442932129    240.0000000000      5.8239674568      5.8239674568
    379.1183471680    213.3333282471      4.5640902519      4.5640902519
    399.3702392578    240.0000000000      2.0269324780      2.0269324780
    399.4752197266    266.6666564941     -0.8402525187     -0.8402525187
    379.3702392578    266.6666564941      7.1876325607      7.1876325607
    379.2442932129    240.0000000000      5.8239674568      5.8239674568
    399.4752197266    266.6666564941     -0.8402525187     -0.8402525187
    399.5801696777    293.3333435059     -2.2349100113     -2.2349100113
    379.4961853027    293.3333435059      6.9220952988      6.9220952988
    379.3702392578    266.6666564941      7.1876325607      7.1876325607
    399.5801696777    293.3333435059     -2.2349100113     -2.2349100113
    399.6851196289    320.0000000000     -1.7542250156     -1.7542250156
    379.6221618652    320.0000000000      3.9746675491      3.9746675491
    379.4961853027    293.3333435059      6.9220952988      6.9220952988
    399.6851196289    320.0000000000     -1.7542250156     -1.7542250156
    399.7900695801    346.6666564941      0.2384774834      0.2384774834
    379.7481079102    346.6666564941     -0.0333899260     -0.0333899260
    379.6221618652    320.0000000000      3.9746675491      3.9746675491
    399.7900695801    346.6666564941      0.2384774834      0.2384774834
    399.8950500488    373.3333435059      2.5212600231      2.5212600231
    379.8740539551    373.3333435059     -1.8614624739     -1.8614624739
    379.7481079102    346.6666564941     -0.0333899260     -0.0333899260
    399.8950500488    373.3333435059      2.5212600231      2.5212600231
    400.0000000000    400.0000000000      2.5212600231      2.5212600231
    380.0000000000    400.0000000000     -1.8614624739     -1.8614624739
    379.8740539551    373.3333435059     -1.8614624739     -1.8614624739
    378.1107482910      0.0000000000      2.7344450951      2.7344450951
    378.2366943359     26.6666698456      2.7344450951      2.7344450951
    357.9428100586     26.6666698456     10.7633352280     10.7633352280
    357.7958679199      0.0000000000     10.7633352280     10.7633352280
    378.2366943359     26.6666698456      2.7344450951      2.7344450951
    378.3626403809     53.3333282471     -0.0837898254     -0.0837898254
    358.0897521973     53.3333282471     13.1019077301     13.1019077301
    357.9428100586     26.6666698456     10.7633352280     10.7633352280
    378.3626403809     53.3333282471     -0.0837898254     -0.0837898254
    378.4885864258     80.0000000000     -2.3269896507     -2.3269896507
    358.2366943359     80.0000000000     13.6424951553     13.6424951553
    358.0897521973     53.3333282471     13.1019077301     13.1019077301
    378.4885864258     80.0000000000     -2.3269896507     -2.3269896507
    378.6145629883    106.6666717529     -2.3158252239     -2.3158252239
    358.3836364746    106.6666717529     10.5955476761     10.5955476761
    358.2366943359     80.0000000000     13.6424951553     13.6424951553
    378.6145629883    106.6666717529     -2.3158252239     -2.3158252239
    378.7405090332    133.3333282471     -0.2481375039     -0.2481375039
    358.5305786133    133.3333282471      4.8402376175      4.8402376175
    358.3836364746    106.6666717529     10.5955476761     10.5955476761
    378.7405090332    133.3333282471     -0.2481375039     -0.2481375039
    378.8664550781    160.0000000000      2.1748726368      2.1748726368
    358.6775207520    160.0000000000     -0.7036525011     -0.7036525011
    358.5305786133    133.3333282471      4.8402376175      4.8402376175
    378.8664550781    160.0000000000      2.1748726368      2.1748726368
    378.9924011230    186.6666717529      3.6709353924      3.6709353924
    358.8244628906    186.6666717529     -2.9282798767     -2.9282798767
    358.6775207520    160.0000000000     -0.7036525011     -0.7036525011
    378.9924011230    186.6666717529      3.6709353924      3.6709353924
    379.1183471680    213.3333282471      4.5640902519      4.5640902519
    358.9714050293    213.3333282471     -0.1769125462     -0.1769125462
    358.8244628906    186.6666717529     -2.9282798767     -2.9282798767
    379.1183471680    213.3333282471      4.5640902519      4.5640902519
    379.2442932129    240.0000000000      5.8239674568      5.8239674568
    359.1183471680    240.0000000000      6.6085872650      6.6085872650
    358.9714050293    213.3333282471     -0.1769125462     -0.1769125462
    379.2442932129    240.0000000000      5.8239674568      5.8239674568
    379.3702392578    266.6666564941      7.1876325607      7.1876325607
    359.2652893066    266.6666564941     13.6247634888     13.6247634888
    359.1183471680    240.0000000000      6.6085872650      6.6085872650
    379.3702392578    266.6666564941      7.1876325607      7.1876325607
    379.4961853027    293.3333435059      6.9220952988      6.9220952988
    359.4122314453    293.3333435059     15.9039354324     15.9039354324
    359.2652893066    266.6666564941     13.6247634888     13.6247634888
    379.4961853027    293.3333435059      6.9220952988      6.9220952988
    379.6221618652    320.0000000000      3.9746675491      3.9746675491
    359.5591735840    320.0000000000     10.8520698547     10.8520698547
    359.4122314453    293.3333435059     15.9039354324     15.9039354324