 VARIABLES= "X","Y","Z","yita"  
ZONE N=                                        3000 E=                              750 F=FEPOINT, ET=QUADRILATERAL
    500.0000000000      0.0000000000     -8.0467967987     -8.0467967987
    500.0000000000     26.6666698456     -8.0467967987     -8.0467967987
    479.7061157227     26.6666698456     -8.0467967987     -8.0467967987
    479.6851196289      0.0000000000     -8.0467967987     -8.0467967987
    500.0000000000     26.6666698456     -8.0467967987     -8.0467967987
    500.0000000000     53.3333282471     -8.0494499207     -8.0494499207
    479.7271118164     53.3333282471     -8.0494499207     -8.0494499207
    479.7061157227     26.6666698456     -8.0467967987     -8.0467967987
    500.0000000000     53.3333282471     -8.0494499207     -8.0494499207
    500.0000000000     80.0000000000     -8.0378208160     -8.0378208160
    479.7481079102     80.0000000000     -8.0378208160     -8.0378208160
    479.7271118164     53.3333282471     -8.0494499207     -8.0494499207
    500.0000000000     80.0000000000     -8.0378208160     -8.0378208160
    500.0000000000    106.6666717529     -8.0278873444     -8.0278873444
    479.7691040039    106.6666717529     -8.0278873444     -8.0278873444
    479.7481079102     80.0000000000     -8.0378208160     -8.0378208160
    500.0000000000    106.6666717529     -8.0278873444     -8.0278873444
    500.0000000000    133.3333282471     -8.0327930450     -8.0327930450
    479.7900695801    133.3333282471     -8.0327930450     -8.0327930450
    479.7691040039    106.6666717529     -8.0278873444     -8.0278873444
    500.0000000000    133.3333282471     -8.0327930450     -8.0327930450
    500.0000000000    160.0000000000     -8.0201425552     -8.0201425552
    479.8110656738    160.0000000000     -8.0201425552     -8.0201425552
    479.7900695801    133.3333282471     -8.0327930450     -8.0327930450
    500.0000000000    160.0000000000     -8.0201425552     -8.0201425552
    500.0000000000    186.6666717529     -8.0042448044     -8.0042448044
    479.8320617676    186.6666717529     -8.0042448044     -8.0042448044
    479.8110656738    160.0000000000     -8.0201425552     -8.0201425552
    500.0000000000    186.6666717529     -8.0042448044     -8.0042448044
    500.0000000000    213.3333282471     -8.0039730072     -8.0039730072
    479.8530578613    213.3333282471     -8.0039730072     -8.0039730072
    479.8320617676    186.6666717529     -8.0042448044     -8.0042448044
    500.0000000000    213.3333282471     -8.0039730072     -8.0039730072
    500.0000000000    240.0000000000     -8.0030097961     -8.0030097961
    479.8740539551    240.0000000000     -8.0030097961     -8.0030097961
    479.8530578613    213.3333282471     -8.0039730072     -8.0039730072
    500.0000000000    240.0000000000     -8.0030097961     -8.0030097961
    500.0000000000    266.6666564941     -8.0019702911     -8.0019702911
    479.8950500488    266.6666564941     -8.0019702911     -8.0019702911
    479.8740539551    240.0000000000     -8.0030097961     -8.0030097961
    500.0000000000    266.6666564941     -8.0019702911     -8.0019702911
    500.0000000000    293.3333435059     -8.0023851395     -8.0023851395
    479.9160156250    293.3333435059     -8.0023851395     -8.0023851395
    479.8950500488    266.6666564941     -8.0019702911     -8.0019702911
    500.0000000000    293.3333435059     -8.0023851395     -8.0023851395
    500.0000000000    320.0000000000     -7.9960527420     -7.9960527420
    479.9370422363    320.0000000000     -7.9960527420     -7.9960527420
    479.9160156250    293.3333435059     -8.0023851395     -8.0023851395
    500.0000000000    320.0000000000     -7.9960527420     -7.9960527420
    500.0000000000    346.6666564941     -7.9946851730     -7.9946851730
    479.9580078125    346.6666564941     -7.9946851730     -7.9946851730
    479.9370422363    320.0000000000     -7.9960527420     -7.9960527420
    500.0000000000    346.6666564941     -7.9946851730     -7.9946851730
    500.0000000000    373.3333435059     -7.9944648743     -7.9944648743
    479.9790039062    373.3333435059     -7.9944648743     -7.9944648743
    479.9580078125    346.6666564941     -7.9946851730     -7.9946851730
    500.0000000000    373.3333435059     -7.9944648743     -7.9944648743
    500.0000000000    400.0000000000     -7.9944648743     -7.9944648743
    480.0000000000    400.0000000000     -7.9944648743     -7.9944648743
    479.9790039062    373.3333435059     -7.9944648743     -7.9944648743
    479.6851196289      0.0000000000     -8.0467967987     -8.0467967987
    479.7061157227     26.6666698456     -8.0467967987     -8.0467967987
    459.4122314453     26.6666698456     -6.0585446358     -6.0585446358
    459.3702392578      0.0000000000     -6.0585446358     -6.0585446358
    479.7061157227     26.6666698456     -8.0467967987     -8.0467967987
    479.7271118164     53.3333282471     -8.0494499207     -8.0494499207
    459.4542236328     53.3333282471     -6.0724878311     -6.0724878311
    459.4122314453     26.6666698456     -6.0585446358     -6.0585446358
    479.7271118164     53.3333282471     -8.0494499207     -8.0494499207
    479.7481079102     80.0000000000     -8.0378208160     -8.0378208160
    459.4961853027     80.0000000000     -6.0743126869     -6.0743126869
    459.4542236328     53.3333282471     -6.0724878311     -6.0724878311
    479.7481079102     80.0000000000     -8.0378208160     -8.0378208160
    479.7691040039    106.6666717529     -8.0278873444     -8.0278873444
    459.5381774902    106.6666717529     -6.0557198524     -6.0557198524
    459.4961853027     80.0000000000     -6.0743126869     -6.0743126869
    479.7691040039    106.6666717529     -8.0278873444     -8.0278873444
    479.7900695801    133.3333282471     -8.0327930450     -8.0327930450
    459.5801696777    133.3333282471     -6.0237026215     -6.0237026215
    459.5381774902    106.6666717529     -6.0557198524     -6.0557198524
    479.7900695801    133.3333282471     -8.0327930450     -8.0327930450
    479.8110656738    160.0000000000     -8.0201425552     -8.0201425552
    459.6221618652    160.0000000000     -5.9966926575     -5.9966926575
    459.5801696777    133.3333282471     -6.0237026215     -6.0237026215
    479.8110656738    160.0000000000     -8.0201425552     -8.0201425552
    479.8320617676    186.6666717529     -8.0042448044     -8.0042448044
    459.6641235352    186.6666717529     -5.9933724403     -5.9933724403
    459.6221618652    160.0000000000     -5.9966926575     -5.9966926575
    479.8320617676    186.6666717529     -8.0042448044     -8.0042448044
    479.8530578613    213.3333282471     -8.0039730072     -8.0039730072
    459.7061157227    213.3333282471     -6.0175123215     -6.0175123215
    459.6641235352    186.6666717529     -5.9933724403     -5.9933724403
    479.8530578613    213.3333282471     -8.0039730072     -8.0039730072
    479.8740539551    240.0000000000     -8.0030097961     -8.0030097961
    459.7481079102    240.0000000000     -6.0538272858     -6.0538272858
    459.7061157227    213.3333282471     -6.0175123215     -6.0175123215
    479.8740539551    240.0000000000     -8.0030097961     -8.0030097961
    479.8950500488    266.6666564941     -8.0019702911     -8.0019702911
    459.7900695801    266.6666564941     -6.0815820694     -6.0815820694
    459.7481079102    240.0000000000     -6.0538272858     -6.0538272858
    479.8950500488    266.6666564941     -8.0019702911     -8.0019702911
    479.9160156250    293.3333435059     -8.0023851395     -8.0023851395
    459.8320617676    293.3333435059     -6.0892047882     -6.0892047882
    459.7900695801    266.6666564941     -6.0815820694     -6.0815820694
    479.9160156250    293.3333435059     -8.0023851395     -8.0023851395
    479.9370422363    320.0000000000     -7.9960527420     -7.9960527420
    459.8740539551    320.0000000000     -6.0793924332     -6.0793924332
    459.8320617676    293.3333435059     -6.0892047882     -6.0892047882
    479.9370422363    320.0000000000     -7.9960527420     -7.9960527420
    479.9580078125    346.6666564941     -7.9946851730     -7.9946851730
    459.9160156250    346.6666564941     -6.0643701553     -6.0643701553
    459.8740539551    320.0000000000     -6.0793924332     -6.0793924332
    479.9580078125    346.6666564941     -7.9946851730     -7.9946851730
    479.9790039062    373.3333435059     -7.9944648743     -7.9944648743
    459.9580078125    373.3333435059     -6.0423545837     -6.0423545837
    459.9160156250    346.6666564941     -6.0643701553     -6.0643701553
    479.9790039062    373.3333435059     -7.9944648743     -7.9944648743
    480.0000000000    400.0000000000     -7.9944648743     -7.9944648743
    460.0000000000    400.0000000000     -6.0423545837     -6.0423545837
    459.9580078125    373.3333435059     -6.0423545837     -6.0423545837
    459.3702392578      0.0000000000     -6.0585446358     -6.0585446358
    459.4122314453     26.6666698456     -6.0585446358     -6.0585446358
    439.1183471680     26.6666698456     -3.3655076027     -3.3655076027
    439.0553588867      0.0000000000     -3.3655076027     -3.3655076027
    459.4122314453     26.6666698456     -6.0585446358     -6.0585446358
    459.4542236328     53.3333282471     -6.0724878311     -6.0724878311
    439.1813049316     53.3333282471     -3.3395977020     -3.3395977020
    439.1183471680     26.6666698456     -3.3655076027     -3.3655076027
    459.4542236328     53.3333282471     -6.0724878311     -6.0724878311
    459.4961853027     80.0000000000     -6.0743126869     -6.0743126869
    439.2442932129     80.0000000000     -3.3443102837     -3.3443102837
    439.1813049316     53.3333282471     -3.3395977020     -3.3395977020
    459.4961853027     80.0000000000     -6.0743126869     -6.0743126869
    459.5381774902    106.6666717529     -6.0557198524     -6.0557198524
    439.3072814941    106.6666717529     -3.4091649055     -3.4091649055
    439.2442932129     80.0000000000     -3.3443102837     -3.3443102837
    459.5381774902    106.6666717529     -6.0557198524     -6.0557198524
    459.5801696777    133.3333282471     -6.0237026215     -6.0237026215
    439.3702392578    133.3333282471     -3.5160026550     -3.5160026550
    439.3072814941    106.6666717529     -3.4091649055     -3.4091649055
    459.5801696777    133.3333282471     -6.0237026215     -6.0237026215
    459.6221618652    160.0000000000     -5.9966926575     -5.9966926575
    439.4332275391    160.0000000000     -3.6048600674     -3.6048600674
    439.3702392578    133.3333282471     -3.5160026550     -3.5160026550
    459.6221618652    160.0000000000     -5.9966926575     -5.9966926575
    459.6641235352    186.6666717529     -5.9933724403     -5.9933724403
    439.4961853027    186.6666717529     -3.6175398827     -3.6175398827
    439.4332275391    160.0000000000     -3.6048600674     -3.6048600674
    459.6641235352    186.6666717529     -5.9933724403     -5.9933724403
    459.7061157227    213.3333282471     -6.0175123215     -6.0175123215
    439.5591735840    213.3333282471     -3.5462899208     -3.5462899208
    439.4961853027    186.6666717529     -3.6175398827     -3.6175398827
    459.7061157227    213.3333282471     -6.0175123215     -6.0175123215
    459.7481079102    240.0000000000     -6.0538272858     -6.0538272858
    439.6221618652    240.0000000000     -3.4446849823     -3.4446849823
    439.5591735840    213.3333282471     -3.5462899208     -3.5462899208
    459.7481079102    240.0000000000     -6.0538272858     -6.0538272858
    459.7900695801    266.6666564941     -6.0815820694     -6.0815820694
    439.6851196289    266.6666564941     -3.3869049549     -3.3869049549
    439.6221618652    240.0000000000     -3.4446849823     -3.4446849823
    459.7900695801    266.6666564941     -6.0815820694     -6.0815820694
    459.8320617676    293.3333435059     -6.0892047882     -6.0892047882
    439.7481079102    293.3333435059     -3.4097774029     -3.4097774029
    439.6851196289    266.6666564941     -3.3869049549     -3.3869049549
    459.8320617676    293.3333435059     -6.0892047882     -6.0892047882
    459.8740539551    320.0000000000     -6.0793924332     -6.0793924332
    439.8110656738    320.0000000000     -3.4902698994     -3.4902698994
    439.7481079102    293.3333435059     -3.4097774029     -3.4097774029
    459.8740539551    320.0000000000     -6.0793924332     -6.0793924332
    459.9160156250    346.6666564941     -6.0643701553     -6.0643701553
    439.8740539551    346.6666564941     -3.5743227005     -3.5743227005
    439.8110656738    320.0000000000     -3.4902698994     -3.4902698994
    459.9160156250    346.6666564941     -6.0643701553     -6.0643701553
    459.9580078125    373.3333435059     -6.0423545837     -6.0423545837
    439.9370422363    373.3333435059     -3.6052675247     -3.6052675247
    439.8740539551    346.6666564941     -3.5743227005     -3.5743227005
    459.9580078125    373.3333435059     -6.0423545837     -6.0423545837
    460.0000000000    400.0000000000     -6.0423545837     -6.0423545837
    440.0000000000    400.0000000000     -3.6052675247     -3.6052675247
    439.9370422363    373.3333435059     -3.6052675247     -3.6052675247
    439.0553588867      0.0000000000     -3.3655076027     -3.3655076027
    439.1183471680     26.6666698456     -3.3655076027     -3.3655076027
    418.8244628906     26.6666698456     -1.4585750103     -1.4585750103
    418.7405090332      0.0000000000     -1.4585750103     -1.4585750103
    439.1183471680     26.6666698456     -3.3655076027     -3.3655076027
    439.1813049316     53.3333282471     -3.3395977020     -3.3395977020
    418.9084167480     53.3333282471     -2.0218849182     -2.0218849182
    418.8244628906     26.6666698456     -1.4585750103     -1.4585750103
    439.1813049316     53.3333282471     -3.3395977020     -3.3395977020
    439.2442932129     80.0000000000     -3.3443102837     -3.3443102837
    418.9924011230     80.0000000000     -2.0945751667     -2.0945751667
    418.9084167480     53.3333282471     -2.0218849182     -2.0218849182
    439.2442932129     80.0000000000     -3.3443102837     -3.3443102837
    439.3072814941    106.6666717529     -3.4091649055     -3.4091649055
    419.0763549805    106.6666717529     -1.2148826122     -1.2148826122
    418.9924011230     80.0000000000     -2.0945751667     -2.0945751667
    439.3072814941    106.6666717529     -3.4091649055     -3.4091649055
    439.3702392578    133.3333282471     -3.5160026550     -3.5160026550
    419.1603393555    133.3333282471      0.3312549591      0.3312549591
    419.0763549805    106.6666717529     -1.2148826122     -1.2148826122
    439.3702392578    133.3333282471     -3.5160026550     -3.5160026550
    439.4332275391    160.0000000000     -3.6048600674     -3.6048600674
    419.2442932129    160.0000000000      1.6336175203      1.6336175203
    419.1603393555    133.3333282471      0.3312549591      0.3312549591
    439.4332275391    160.0000000000     -3.6048600674     -3.6048600674
    439.4961853027    186.6666717529     -3.6175398827     -3.6175398827
    419.3282775879    186.6666717529      1.8284250498      1.8284250498
    419.2442932129    160.0000000000      1.6336175203      1.6336175203
    439.4961853027    186.6666717529     -3.6175398827     -3.6175398827
    439.5591735840    213.3333282471     -3.5462899208     -3.5462899208
    419.4122314453    213.3333282471      0.7971650362      0.7971650362
    419.3282775879    186.6666717529      1.8284250498      1.8284250498
    439.5591735840    213.3333282471     -3.5462899208     -3.5462899208
    439.6221618652    240.0000000000     -3.4446849823     -3.4446849823
    419.4961853027    240.0000000000     -0.7177749872     -0.7177749872
    419.4122314453    213.3333282471      0.7971650362      0.7971650362
    439.6221618652    240.0000000000     -3.4446849823     -3.4446849823
    439.6851196289    266.6666564941     -3.3869049549     -3.3869049549
    419.5801696777    266.6666564941     -1.7072699070     -1.7072699070
    419.4961853027    240.0000000000     -0.7177749872     -0.7177749872
    439.6851196289    266.6666564941     -3.3869049549     -3.3869049549
    439.7481079102    293.3333435059     -3.4097774029     -3.4097774029
    419.6641235352    293.3333435059     -1.6632100344     -1.6632100344
    419.5801696777    266.6666564941     -1.7072699070     -1.7072699070
    439.7481079102    293.3333435059     -3.4097774029     -3.4097774029
    439.8110656738    320.0000000000     -3.4902698994     -3.4902698994
    419.7481079102    320.0000000000     -0.8465424776     -0.8465424776
    419.6641235352    293.3333435059     -1.6632100344     -1.6632100344
    439.8110656738    320.0000000000     -3.4902698994     -3.4902698994
    439.8740539551    346.6666564941     -3.5743227005     -3.5743227005
    419.8320617676    346.6666564941      0.0800926089      0.0800926089
    419.7481079102    320.0000000000     -0.8465424776     -0.8465424776
    439.8740539551    346.6666564941     -3.5743227005     -3.5743227005
    439.9370422363    373.3333435059     -3.6052675247     -3.6052675247
    419.9160156250    373.3333435059      0.6025150418      0.6025150418
    419.8320617676    346.6666564941      0.0800926089      0.0800926089
    439.9370422363    373.3333435059     -3.6052675247     -3.6052675247
    440.0000000000    400.0000000000     -3.6052675247     -3.6052675247
    420.0000000000    400.0000000000      0.6025150418      0.6025150418
    419.9160156250    373.3333435059      0.6025150418      0.6025150418
    418.7405090332      0.0000000000     -1.4585750103     -1.4585750103
    418.8244628906     26.6666698456     -1.4585750103     -1.4585750103
    398.5305786133     26.6666698456     -0.8267450333     -0.8267450333
    398.4256286621      0.0000000000     -0.8267450333     -0.8267450333
    418.8244628906     26.6666698456     -1.4585750103     -1.4585750103
    418.9084167480     53.3333282471     -2.0218849182     -2.0218849182
    398.6355285645     53.3333282471     -3.6517624855     -3.6517624855
    398.5305786133     26.6666698456     -0.8267450333     -0.8267450333
    418.9084167480     53.3333282471     -2.0218849182     -2.0218849182
    418.9924011230     80.0000000000     -2.0945751667     -2.0945751667
    398.7405090332     80.0000000000     -4.7988977432     -4.7988977432
    398.6355285645     53.3333282471     -3.6517624855     -3.6517624855
    418.9924011230     80.0000000000     -2.0945751667     -2.0945751667
    419.0763549805    106.6666717529     -1.2148826122     -1.2148826122
    398.8454589844    106.6666717529     -2.2796101570     -2.2796101570
    398.7405090332     80.0000000000     -4.7988977432     -4.7988977432
    419.0763549805    106.6666717529     -1.2148826122     -1.2148826122
    419.1603393555    133.3333282471      0.3312549591      0.3312549591
    398.9504089355    133.3333282471      2.9712800980      2.9712800980
    398.8454589844    106.6666717529     -2.2796101570     -2.2796101570
    419.1603393555    133.3333282471      0.3312549591      0.3312549591
    419.2442932129    160.0000000000      1.6336175203      1.6336175203
    399.0553588867    160.0000000000      7.6957349777      7.6957349777
    398.9504089355    133.3333282471      2.9712800980      2.9712800980
    419.2442932129    160.0000000000      1.6336175203      1.6336175203
    419.3282775879    186.6666717529      1.8284250498      1.8284250498
    399.1603393555    186.6666717529      8.9606246948      8.9606246948
    399.0553588867    160.0000000000      7.6957349777      7.6957349777
    419.3282775879    186.6666717529      1.8284250498      1.8284250498
    419.4122314453    213.3333282471      0.7971650362      0.7971650362
    399.2652893066    213.3333282471      6.5127601624      6.5127601624
    399.1603393555    186.6666717529      8.9606246948      8.9606246948
    419.4122314453    213.3333282471      0.7971650362      0.7971650362
    419.4961853027    240.0000000000     -0.7177749872     -0.7177749872
    399.3702392578    240.0000000000      2.6870474815      2.6870474815
    399.2652893066    213.3333282471      6.5127601624      6.5127601624
    419.4961853027    240.0000000000     -0.7177749872     -0.7177749872
    419.5801696777    266.6666564941     -1.7072699070     -1.7072699070
    399.4752197266    266.6666564941      0.1798300445      0.1798300445
    399.3702392578    240.0000000000      2.6870474815      2.6870474815
    419.5801696777    266.6666564941     -1.7072699070     -1.7072699070
    419.6641235352    293.3333435059     -1.6632100344     -1.6632100344
    399.5801696777    293.3333435059      0.0412850082      0.0412850082
    399.4752197266    266.6666564941      0.1798300445      0.1798300445
    419.6641235352    293.3333435059     -1.6632100344     -1.6632100344
    419.7481079102    320.0000000000     -0.8465424776     -0.8465424776
    399.6851196289    320.0000000000      1.5096175671      1.5096175671
    399.5801696777    293.3333435059      0.0412850082      0.0412850082
    419.7481079102    320.0000000000     -0.8465424776     -0.8465424776
    419.8320617676    346.6666564941      0.0800926089      0.0800926089
    399.7900695801    346.6666564941      3.2233724594      3.2233724594
    399.6851196289    320.0000000000      1.5096175671      1.5096175671
    419.8320617676    346.6666564941      0.0800926089      0.0800926089
    419.9160156250    373.3333435059      0.6025150418      0.6025150418
    399.8950500488    373.3333435059      4.3262205124      4.3262205124
    399.7900695801    346.6666564941      3.2233724594      3.2233724594
    419.9160156250    373.3333435059      0.6025150418      0.6025150418
    420.0000000000    400.0000000000      0.6025150418      0.6025150418
    400.0000000000    400.0000000000      4.3262205124      4.3262205124
    399.8950500488    373.3333435059      4.3262205124      4.3262205124
    398.4256286621      0.0000000000     -0.8267450333     -0.8267450333
    398.5305786133     26.6666698456     -0.8267450333     -0.8267450333
    378.2366943359     26.6666698456      4.1514072418      4.1514072418
    378.1107482910      0.0000000000      4.1514072418      4.1514072418
    398.5305786133     26.6666698456     -0.8267450333     -0.8267450333
    398.6355285645     53.3333282471     -3.6517624855     -3.6517624855
    378.3626403809     53.3333282471      0.3797650337      0.3797650337
    378.2366943359     26.6666698456      4.1514072418      4.1514072418
    398.6355285645     53.3333282471     -3.6517624855     -3.6517624855
    398.7405090332     80.0000000000     -4.7988977432     -4.7988977432
    378.4885864258     80.0000000000     -2.1152625084     -2.1152625084
    378.3626403809     53.3333282471      0.3797650337      0.3797650337
    398.7405090332     80.0000000000     -4.7988977432     -4.7988977432
    398.8454589844    106.6666717529     -2.2796101570     -2.2796101570
    378.6145629883    106.6666717529     -1.1811051369     -1.1811051369
    378.4885864258     80.0000000000     -2.1152625084     -2.1152625084
    398.8454589844    106.6666717529     -2.2796101570     -2.2796101570
    398.9504089355    133.3333282471      2.9712800980      2.9712800980
    378.7405090332    133.3333282471      2.4063749313      2.4063749313
    378.6145629883    106.6666717529     -1.1811051369     -1.1811051369
    398.9504089355    133.3333282471      2.9712800980      2.9712800980
    399.0553588867    160.0000000000      7.6957349777      7.6957349777
    378.8664550781    160.0000000000      5.9335222244      5.9335222244
    378.7405090332    133.3333282471      2.4063749313      2.4063749313
    399.0553588867    160.0000000000      7.6957349777      7.6957349777
    399.1603393555    186.6666717529      8.9606246948      8.9606246948
    378.9924011230    186.6666717529      7.4512023926      7.4512023926
    378.8664550781    160.0000000000      5.9335222244      5.9335222244
    399.1603393555    186.6666717529      8.9606246948      8.9606246948
    399.2652893066    213.3333282471      6.5127601624      6.5127601624
    379.1183471680    213.3333282471      7.2890124321      7.2890124321
    378.9924011230    186.6666717529      7.4512023926      7.4512023926
    399.2652893066    213.3333282471      6.5127601624      6.5127601624
    399.3702392578    240.0000000000      2.6870474815      2.6870474815
    379.2442932129    240.0000000000      6.8611350060      6.8611350060
    379.1183471680    213.3333282471      7.2890124321      7.2890124321
    399.3702392578    240.0000000000      2.6870474815      2.6870474815
    399.4752197266    266.6666564941      0.1798300445      0.1798300445
    379.3702392578    266.6666564941      6.6292524338      6.6292524338
    379.2442932129    240.0000000000      6.8611350060      6.8611350060
    399.4752197266    266.6666564941      0.1798300445      0.1798300445
    399.5801696777    293.3333435059      0.0412850082      0.0412850082
    379.4961853027    293.3333435059      5.9312152863      5.9312152863
    379.3702392578    266.6666564941      6.6292524338      6.6292524338
    399.5801696777    293.3333435059      0.0412850082      0.0412850082
    399.6851196289    320.0000000000      1.5096175671      1.5096175671
    379.6221618652    320.0000000000      4.4310922623      4.4310922623
    379.4961853027    293.3333435059      5.9312152863      5.9312152863
    399.6851196289    320.0000000000      1.5096175671      1.5096175671
    399.7900695801    346.6666564941      3.2233724594      3.2233724594
    379.7481079102    346.6666564941      2.9393775463      2.9393775463
    379.6221618652    320.0000000000      4.4310922623      4.4310922623
    399.7900695801    346.6666564941      3.2233724594      3.2233724594
    399.8950500488    373.3333435059      4.3262205124      4.3262205124
    379.8740539551    373.3333435059      2.6491549015      2.6491549015
    379.7481079102    346.6666564941      2.9393775463      2.9393775463
    399.8950500488    373.3333435059      4.3262205124      4.3262205124
    400.0000000000    400.0000000000      4.3262205124      4.3262205124
    380.0000000000    400.0000000000      2.6491549015      2.6491549015
    379.8740539551    373.3333435059      2.6491549015      2.6491549015
    378.1107482910      0.0000000000      4.1514072418      4.1514072418
    378.2366943359     26.6666698456      4.1514072418      4.1514072418
    357.9428100586     26.6666698456     11.7417030334     11.7417030334
    357.7958679199      0.0000000000     11.7417030334     11.7417030334
    378.2366943359     26.6666698456      4.1514072418      4.1514072418
    378.3626403809     53.3333282471      0.3797650337      0.3797650337
    358.0897521973     53.3333282471     12.6873893738     12.6873893738
    357.9428100586     26.6666698456     11.7417030334     11.7417030334
    378.3626403809     53.3333282471      0.3797650337      0.3797650337
    378.4885864258     80.0000000000     -2.1152625084     -2.1152625084
    358.2366943359     80.0000000000     12.4452171326     12.4452171326
    358.0897521973     53.3333282471     12.6873893738     12.6873893738
    378.4885864258     80.0000000000     -2.1152625084     -2.1152625084
    378.6145629883    106.6666717529     -1.1811051369     -1.1811051369
    358.3836364746    106.6666717529      9.8204917908      9.8204917908
    358.2366943359     80.0000000000     12.4452171326     12.4452171326
    378.6145629883    106.6666717529     -1.1811051369     -1.1811051369
    378.7405090332    133.3333282471      2.4063749313      2.4063749313
    358.5305786133    133.3333282471      5.1548948288      5.1548948288
    358.3836364746    106.6666717529      9.8204917908      9.8204917908
    378.7405090332    133.3333282471      2.4063749313      2.4063749313
    378.8664550781    160.0000000000      5.9335222244      5.9335222244
    358.6775207520    160.0000000000      0.8291649818      0.8291649818
    358.5305786133    133.3333282471      5.1548948288      5.1548948288
    378.8664550781    160.0000000000      5.9335222244      5.9335222244
    378.9924011230    186.6666717529      7.4512023926      7.4512023926
    358.8244628906    186.6666717529     -0.0340500474     -0.0340500474
    358.6775207520    160.0000000000      0.8291649818      0.8291649818
    378.9924011230    186.6666717529      7.4512023926      7.4512023926
    379.1183471680    213.3333282471      7.2890124321      7.2890124321
    358.9714050293    213.3333282471      3.7404575348      3.7404575348
    358.8244628906    186.6666717529     -0.0340500474     -0.0340500474
    379.1183471680    213.3333282471      7.2890124321      7.2890124321
    379.2442932129    240.0000000000      6.8611350060      6.8611350060
    359.1183471680    240.0000000000      9.7311973572      9.7311973572
    358.9714050293    213.3333282471      3.7404575348      3.7404575348
    379.2442932129    240.0000000000      6.8611350060      6.8611350060
    379.3702392578    266.6666564941      6.6292524338      6.6292524338
    359.2652893066    266.6666564941     13.5086145401     13.5086145401
    359.1183471680    240.0000000000      9.7311973572      9.7311973572
    379.3702392578    266.6666564941      6.6292524338      6.6292524338
    379.4961853027    293.3333435059      5.9312152863      5.9312152863
    359.4122314453    293.3333435059     12.3675823212     12.3675823212
    359.2652893066    266.6666564941     13.5086145401     13.5086145401
    379.4961853027    293.3333435059      5.9312152863      5.9312152863
    379.6221618652    320.0000000000      4.4310922623      4.4310922623
    359.5591735840    320.0000000000      7.5425295830      7.5425295830
    359.4122314453    293.3333435059     12.3675823212     12.3675823212