 VARIABLES= "X","Y","Z","yita"  
ZONE N=                                        3000 E=                              750 F=FEPOINT, ET=QUADRILATERAL
    500.0000000000      0.0000000000      9.3183708191      9.3183708191
    500.0000000000     26.6666698456      9.3183708191      9.3183708191
    479.7061157227     26.6666698456      9.3183708191      9.3183708191
    479.6851196289      0.0000000000      9.3183708191      9.3183708191
    500.0000000000     26.6666698456      9.3183708191      9.3183708191
    500.0000000000     53.3333282471      9.3198204041      9.3198204041
    479.7271118164     53.3333282471      9.3198204041      9.3198204041
    479.7061157227     26.6666698456      9.3183708191      9.3183708191
    500.0000000000     53.3333282471      9.3198204041      9.3198204041
    500.0000000000     80.0000000000      9.3126401901      9.3126401901
    479.7481079102     80.0000000000      9.3126401901      9.3126401901
    479.7271118164     53.3333282471      9.3198204041      9.3198204041
    500.0000000000     80.0000000000      9.3126401901      9.3126401901
    500.0000000000    106.6666717529      9.3081626892      9.3081626892
    479.7691040039    106.6666717529      9.3081626892      9.3081626892
    479.7481079102     80.0000000000      9.3126401901      9.3126401901
    500.0000000000    106.6666717529      9.3081626892      9.3081626892
    500.0000000000    133.3333282471      9.3140077591      9.3140077591
    479.7900695801    133.3333282471      9.3140077591      9.3140077591
    479.7691040039    106.6666717529      9.3081626892      9.3081626892
    500.0000000000    133.3333282471      9.3140077591      9.3140077591
    500.0000000000    160.0000000000      9.3011674881      9.3011674881
    479.8110656738    160.0000000000      9.3011674881      9.3011674881
    479.7900695801    133.3333282471      9.3140077591      9.3140077591
    500.0000000000    160.0000000000      9.3011674881      9.3011674881
    500.0000000000    186.6666717529      9.2857751846      9.2857751846
    479.8320617676    186.6666717529      9.2857751846      9.2857751846
    479.8110656738    160.0000000000      9.3011674881      9.3011674881
    500.0000000000    186.6666717529      9.2857751846      9.2857751846
    500.0000000000    213.3333282471      9.2867727280      9.2867727280
    479.8530578613    213.3333282471      9.2867727280      9.2867727280
    479.8320617676    186.6666717529      9.2857751846      9.2857751846
    500.0000000000    213.3333282471      9.2867727280      9.2867727280
    500.0000000000    240.0000000000      9.2808322906      9.2808322906
    479.8740539551    240.0000000000      9.2808322906      9.2808322906
    479.8530578613    213.3333282471      9.2867727280      9.2867727280
    500.0000000000    240.0000000000      9.2808322906      9.2808322906
    500.0000000000    266.6666564941      9.2732772827      9.2732772827
    479.8950500488    266.6666564941      9.2732772827      9.2732772827
    479.8740539551    240.0000000000      9.2808322906      9.2808322906
    500.0000000000    266.6666564941      9.2732772827      9.2732772827
    500.0000000000    293.3333435059      9.2720775604      9.2720775604
    479.9160156250    293.3333435059      9.2720775604      9.2720775604
    479.8950500488    266.6666564941      9.2732772827      9.2732772827
    500.0000000000    293.3333435059      9.2720775604      9.2720775604
    500.0000000000    320.0000000000      9.2594203949      9.2594203949
    479.9370422363    320.0000000000      9.2594203949      9.2594203949
    479.9160156250    293.3333435059      9.2720775604      9.2720775604
    500.0000000000    320.0000000000      9.2594203949      9.2594203949
    500.0000000000    346.6666564941      9.2538747787      9.2538747787
    479.9580078125    346.6666564941      9.2538747787      9.2538747787
    479.9370422363    320.0000000000      9.2594203949      9.2594203949
    500.0000000000    346.6666564941      9.2538747787      9.2538747787
    500.0000000000    373.3333435059      9.2558774948      9.2558774948
    479.9790039062    373.3333435059      9.2558774948      9.2558774948
    479.9580078125    346.6666564941      9.2538747787      9.2538747787
    500.0000000000    373.3333435059      9.2558774948      9.2558774948
    500.0000000000    400.0000000000      9.2558774948      9.2558774948
    480.0000000000    400.0000000000      9.2558774948      9.2558774948
    479.9790039062    373.3333435059      9.2558774948      9.2558774948
    479.6851196289      0.0000000000      9.3183708191      9.3183708191
    479.7061157227     26.6666698456      9.3183708191      9.3183708191
    459.4122314453     26.6666698456      9.0425357819      9.0425357819
    459.3702392578      0.0000000000      9.0425357819      9.0425357819
    479.7061157227     26.6666698456      9.3183708191      9.3183708191
    479.7271118164     53.3333282471      9.3198204041      9.3198204041
    459.4542236328     53.3333282471      9.0573272705      9.0573272705
    459.4122314453     26.6666698456      9.0425357819      9.0425357819
    479.7271118164     53.3333282471      9.3198204041      9.3198204041
    479.7481079102     80.0000000000      9.3126401901      9.3126401901
    459.4961853027     80.0000000000      9.0613651276      9.0613651276
    459.4542236328     53.3333282471      9.0573272705      9.0573272705
    479.7481079102     80.0000000000      9.3126401901      9.3126401901
    479.7691040039    106.6666717529      9.3081626892      9.3081626892
    459.5381774902    106.6666717529      9.0441102982      9.0441102982
    459.4961853027     80.0000000000      9.0613651276      9.0613651276
    479.7691040039    106.6666717529      9.3081626892      9.3081626892
    479.7900695801    133.3333282471      9.3140077591      9.3140077591
    459.5801696777    133.3333282471      9.0101757050      9.0101757050
    459.5381774902    106.6666717529      9.0441102982      9.0441102982
    479.7900695801    133.3333282471      9.3140077591      9.3140077591
    479.8110656738    160.0000000000      9.3011674881      9.3011674881
    459.6221618652    160.0000000000      8.9763374329      8.9763374329
    459.5801696777    133.3333282471      9.0101757050      9.0101757050
    479.8110656738    160.0000000000      9.3011674881      9.3011674881
    479.8320617676    186.6666717529      9.2857751846      9.2857751846
    459.6641235352    186.6666717529      8.9608078003      8.9608078003
    459.6221618652    160.0000000000      8.9763374329      8.9763374329
    479.8320617676    186.6666717529      9.2857751846      9.2857751846
    479.8530578613    213.3333282471      9.2867727280      9.2867727280
    459.7061157227    213.3333282471      8.9695053101      8.9695053101
    459.6641235352    186.6666717529      8.9608078003      8.9608078003
    479.8530578613    213.3333282471      9.2867727280      9.2867727280
    479.8740539551    240.0000000000      9.2808322906      9.2808322906
    459.7481079102    240.0000000000      8.9918174744      8.9918174744
    459.7061157227    213.3333282471      8.9695053101      8.9695053101
    479.8740539551    240.0000000000      9.2808322906      9.2808322906
    479.8950500488    266.6666564941      9.2732772827      9.2732772827
    459.7900695801    266.6666564941      9.0118293762      9.0118293762
    459.7481079102    240.0000000000      8.9918174744      8.9918174744
    479.8950500488    266.6666564941      9.2732772827      9.2732772827
    479.9160156250    293.3333435059      9.2720775604      9.2720775604
    459.8320617676    293.3333435059      9.0201120377      9.0201120377
    459.7900695801    266.6666564941      9.0118293762      9.0118293762
    479.9160156250    293.3333435059      9.2720775604      9.2720775604
    479.9370422363    320.0000000000      9.2594203949      9.2594203949
    459.8740539551    320.0000000000      9.0170373917      9.0170373917
    459.8320617676    293.3333435059      9.0201120377      9.0201120377
    479.9370422363    320.0000000000      9.2594203949      9.2594203949
    479.9580078125    346.6666564941      9.2538747787      9.2538747787
    459.9160156250    346.6666564941      9.0091056824      9.0091056824
    459.8740539551    320.0000000000      9.0170373917      9.0170373917
    479.9580078125    346.6666564941      9.2538747787      9.2538747787
    479.9790039062    373.3333435059      9.2558774948      9.2558774948
    459.9580078125    373.3333435059      8.9911651611      8.9911651611
    459.9160156250    346.6666564941      9.0091056824      9.0091056824
    479.9790039062    373.3333435059      9.2558774948      9.2558774948
    480.0000000000    400.0000000000      9.2558774948      9.2558774948
    460.0000000000    400.0000000000      8.9911651611      8.9911651611
    459.9580078125    373.3333435059      8.9911651611      8.9911651611
    459.3702392578      0.0000000000      9.0425357819      9.0425357819
    459.4122314453     26.6666698456      9.0425357819      9.0425357819
    439.1183471680     26.6666698456      7.7049698830      7.7049698830
    439.0553588867      0.0000000000      7.7049698830      7.7049698830
    459.4122314453     26.6666698456      9.0425357819      9.0425357819
    459.4542236328     53.3333282471      9.0573272705      9.0573272705
    439.1813049316     53.3333282471      7.6508126259      7.6508126259
    439.1183471680     26.6666698456      7.7049698830      7.7049698830
    459.4542236328     53.3333282471      9.0573272705      9.0573272705
    459.4961853027     80.0000000000      9.0613651276      9.0613651276
    439.2442932129     80.0000000000      7.6356925964      7.6356925964
    439.1813049316     53.3333282471      7.6508126259      7.6508126259
    459.4961853027     80.0000000000      9.0613651276      9.0613651276
    459.5381774902    106.6666717529      9.0441102982      9.0441102982
    439.3072814941    106.6666717529      7.7038979530      7.7038979530
    439.2442932129     80.0000000000      7.6356925964      7.6356925964
    459.5381774902    106.6666717529      9.0441102982      9.0441102982
    459.5801696777    133.3333282471      9.0101757050      9.0101757050
    439.3702392578    133.3333282471      7.8349752426      7.8349752426
    439.3072814941    106.6666717529      7.7038979530      7.7038979530
    459.5801696777    133.3333282471      9.0101757050      9.0101757050
    459.6221618652    160.0000000000      8.9763374329      8.9763374329
    439.4332275391    160.0000000000      7.9564948082      7.9564948082
    439.3702392578    133.3333282471      7.8349752426      7.8349752426
    459.6221618652    160.0000000000      8.9763374329      8.9763374329
    459.6641235352    186.6666717529      8.9608078003      8.9608078003
    439.4961853027    186.6666717529      7.9980025291      7.9980025291
    439.4332275391    160.0000000000      7.9564948082      7.9564948082
    459.6641235352    186.6666717529      8.9608078003      8.9608078003
    459.7061157227    213.3333282471      8.9695053101      8.9695053101
    439.5591735840    213.3333282471      7.9433927536      7.9433927536
    439.4961853027    186.6666717529      7.9980025291      7.9980025291
    459.7061157227    213.3333282471      8.9695053101      8.9695053101
    459.7481079102    240.0000000000      8.9918174744      8.9918174744
    439.6221618652    240.0000000000      7.8430032730      7.8430032730
    439.5591735840    213.3333282471      7.9433927536      7.9433927536
    459.7481079102    240.0000000000      8.9918174744      8.9918174744
    459.7900695801    266.6666564941      9.0118293762      9.0118293762
    439.6851196289    266.6666564941      7.7731146812      7.7731146812
    439.6221618652    240.0000000000      7.8430032730      7.8430032730
    459.7900695801    266.6666564941      9.0118293762      9.0118293762
    459.8320617676    293.3333435059      9.0201120377      9.0201120377
    439.7481079102    293.3333435059      7.7750649452      7.7750649452
    439.6851196289    266.6666564941      7.7731146812      7.7731146812
    459.8320617676    293.3333435059      9.0201120377      9.0201120377
    459.8740539551    320.0000000000      9.0170373917      9.0170373917
    439.8110656738    320.0000000000      7.8314347267      7.8314347267
    439.7481079102    293.3333435059      7.7750649452      7.7750649452
    459.8740539551    320.0000000000      9.0170373917      9.0170373917
    459.9160156250    346.6666564941      9.0091056824      9.0091056824
    439.8740539551    346.6666564941      7.8978123665      7.8978123665
    439.8110656738    320.0000000000      7.8314347267      7.8314347267
    459.9160156250    346.6666564941      9.0091056824      9.0091056824
    459.9580078125    373.3333435059      8.9911651611      8.9911651611
    439.9370422363    373.3333435059      7.9239072800      7.9239072800
    439.8740539551    346.6666564941      7.8978123665      7.8978123665
    459.9580078125    373.3333435059      8.9911651611      8.9911651611
    460.0000000000    400.0000000000      8.9911651611      8.9911651611
    440.0000000000    400.0000000000      7.9239072800      7.9239072800
    439.9370422363    373.3333435059      7.9239072800      7.9239072800
    439.0553588867      0.0000000000      7.7049698830      7.7049698830
    439.1183471680     26.6666698456      7.7049698830      7.7049698830
    418.8244628906     26.6666698456      7.3803701401      7.3803701401
    418.7405090332      0.0000000000      7.3803701401      7.3803701401
    439.1183471680     26.6666698456      7.7049698830      7.7049698830
    439.1813049316     53.3333282471      7.6508126259      7.6508126259
    418.9084167480     53.3333282471      8.1713600159      8.1713600159
    418.8244628906     26.6666698456      7.3803701401      7.3803701401
    439.1813049316     53.3333282471      7.6508126259      7.6508126259
    439.2442932129     80.0000000000      7.6356925964      7.6356925964
    418.9924011230     80.0000000000      8.4490003586      8.4490003586
    418.9084167480     53.3333282471      8.1713600159      8.1713600159
    439.2442932129     80.0000000000      7.6356925964      7.6356925964
    439.3072814941    106.6666717529      7.7038979530      7.7038979530
    419.0763549805    106.6666717529      7.6264424324      7.6264424324
    418.9924011230     80.0000000000      8.4490003586      8.4490003586
    439.3072814941    106.6666717529      7.7038979530      7.7038979530
    439.3702392578    133.3333282471      7.8349752426      7.8349752426
    419.1603393555    133.3333282471      5.9559926987      5.9559926987
    419.0763549805    106.6666717529      7.6264424324      7.6264424324
    439.3702392578    133.3333282471      7.8349752426      7.8349752426
    439.4332275391    160.0000000000      7.9564948082      7.9564948082
    419.2442932129    160.0000000000      4.3622221947      4.3622221947
    419.1603393555    133.3333282471      5.9559926987      5.9559926987
    439.4332275391    160.0000000000      7.9564948082      7.9564948082
    439.4961853027    186.6666717529      7.9980025291      7.9980025291
    419.3282775879    186.6666717529      3.7507176399      3.7507176399
    419.2442932129    160.0000000000      4.3622221947      4.3622221947
    439.4961853027    186.6666717529      7.9980025291      7.9980025291
    439.5591735840    213.3333282471      7.9433927536      7.9433927536
    419.4122314453    213.3333282471      4.3452801704      4.3452801704
    419.3282775879    186.6666717529      3.7507176399      3.7507176399
    439.5591735840    213.3333282471      7.9433927536      7.9433927536
    439.6221618652    240.0000000000      7.8430032730      7.8430032730
    419.4961853027    240.0000000000      5.5520601273      5.5520601273
    419.4122314453    213.3333282471      4.3452801704      4.3452801704
    439.6221618652    240.0000000000      7.8430032730      7.8430032730
    439.6851196289    266.6666564941      7.7731146812      7.7731146812
    419.5801696777    266.6666564941      6.4751152992      6.4751152992
    419.4961853027    240.0000000000      5.5520601273      5.5520601273
    439.6851196289    266.6666564941      7.7731146812      7.7731146812
    439.7481079102    293.3333435059      7.7750649452      7.7750649452
    419.6641235352    293.3333435059      6.6369199753      6.6369199753
    419.5801696777    266.6666564941      6.4751152992      6.4751152992
    439.7481079102    293.3333435059      7.7750649452      7.7750649452
    439.8110656738    320.0000000000      7.8314347267      7.8314347267
    419.7481079102    320.0000000000      6.2181272507      6.2181272507
    419.6641235352    293.3333435059      6.6369199753      6.6369199753
    439.8110656738    320.0000000000      7.8314347267      7.8314347267
    439.8740539551    346.6666564941      7.8978123665      7.8978123665
    419.8320617676    346.6666564941      5.6600427628      5.6600427628
    419.7481079102    320.0000000000      6.2181272507      6.2181272507
    439.8740539551    346.6666564941      7.8978123665      7.8978123665
    439.9370422363    373.3333435059      7.9239072800      7.9239072800
    419.9160156250    373.3333435059      5.2447929382      5.2447929382
    419.8320617676    346.6666564941      5.6600427628      5.6600427628
    439.9370422363    373.3333435059      7.9239072800      7.9239072800
    440.0000000000    400.0000000000      7.9239072800      7.9239072800
    420.0000000000    400.0000000000      5.2447929382      5.2447929382
    419.9160156250    373.3333435059      5.2447929382      5.2447929382
    418.7405090332      0.0000000000      7.3803701401      7.3803701401
    418.8244628906     26.6666698456      7.3803701401      7.3803701401
    398.5305786133     26.6666698456      6.8778753281      6.8778753281
    398.4256286621      0.0000000000      6.8778753281      6.8778753281
    418.8244628906     26.6666698456      7.3803701401      7.3803701401
    418.9084167480     53.3333282471      8.1713600159      8.1713600159
    398.6355285645     53.3333282471      9.4773025513      9.4773025513
    398.5305786133     26.6666698456      6.8778753281      6.8778753281
    418.9084167480     53.3333282471      8.1713600159      8.1713600159
    418.9924011230     80.0000000000      8.4490003586      8.4490003586
    398.7405090332     80.0000000000     10.8880853653     10.8880853653
    398.6355285645     53.3333282471      9.4773025513      9.4773025513
    418.9924011230     80.0000000000      8.4490003586      8.4490003586
    419.0763549805    106.6666717529      7.6264424324      7.6264424324
    398.8454589844    106.6666717529      9.3805274963      9.3805274963
    398.7405090332     80.0000000000     10.8880853653     10.8880853653
    419.0763549805    106.6666717529      7.6264424324      7.6264424324
    419.1603393555    133.3333282471      5.9559926987      5.9559926987
    398.9504089355    133.3333282471      5.4640126228      5.4640126228
    398.8454589844    106.6666717529      9.3805274963      9.3805274963
    419.1603393555    133.3333282471      5.9559926987      5.9559926987
    419.2442932129    160.0000000000      4.3622221947      4.3622221947
    399.0553588867    160.0000000000      1.4122999907      1.4122999907
    398.9504089355    133.3333282471      5.4640126228      5.4640126228
    419.2442932129    160.0000000000      4.3622221947      4.3622221947
    419.3282775879    186.6666717529      3.7507176399      3.7507176399
    399.1603393555    186.6666717529     -0.5807999969     -0.5807999969
    399.0553588867    160.0000000000      1.4122999907      1.4122999907
    419.3282775879    186.6666717529      3.7507176399      3.7507176399
    419.4122314453    213.3333282471      4.3452801704      4.3452801704
    399.2652893066    213.3333282471     -0.0253374875     -0.0253374875
    399.1603393555    186.6666717529     -0.5807999969     -0.5807999969
    419.4122314453    213.3333282471      4.3452801704      4.3452801704
    419.4961853027    240.0000000000      5.5520601273      5.5520601273
    399.3702392578    240.0000000000      1.7674951553      1.7674951553
    399.2652893066    213.3333282471     -0.0253374875     -0.0253374875
    419.4961853027    240.0000000000      5.5520601273      5.5520601273
    419.5801696777    266.6666564941      6.4751152992      6.4751152992
    399.4752197266    266.6666564941      3.1126127243      3.1126127243
    399.3702392578    240.0000000000      1.7674951553      1.7674951553
    419.5801696777    266.6666564941      6.4751152992      6.4751152992
    419.6641235352    293.3333435059      6.6369199753      6.6369199753
    399.5801696777    293.3333435059      3.5102376938      3.5102376938
    399.4752197266    266.6666564941      3.1126127243      3.1126127243
    419.6641235352    293.3333435059      6.6369199753      6.6369199753
    419.7481079102    320.0000000000      6.2181272507      6.2181272507
    399.6851196289    320.0000000000      3.6677548885      3.6677548885
    399.5801696777    293.3333435059      3.5102376938      3.5102376938
    419.7481079102    320.0000000000      6.2181272507      6.2181272507
    419.8320617676    346.6666564941      5.6600427628      5.6600427628
    399.7900695801    346.6666564941      4.0317096710      4.0317096710
    399.6851196289    320.0000000000      3.6677548885      3.6677548885
    419.8320617676    346.6666564941      5.6600427628      5.6600427628
    419.9160156250    373.3333435059      5.2447929382      5.2447929382
    399.8950500488    373.3333435059      4.0728998184      4.0728998184
    399.7900695801    346.6666564941      4.0317096710      4.0317096710
    419.9160156250    373.3333435059      5.2447929382      5.2447929382
    420.0000000000    400.0000000000      5.2447929382      5.2447929382
    400.0000000000    400.0000000000      4.0728998184      4.0728998184
    399.8950500488    373.3333435059      4.0728998184      4.0728998184
    398.4256286621      0.0000000000      6.8778753281      6.8778753281
    398.5305786133     26.6666698456      6.8778753281      6.8778753281
    378.2366943359     26.6666698456     -0.0143724680     -0.0143724680
    378.1107482910      0.0000000000     -0.0143724680     -0.0143724680
    398.5305786133     26.6666698456      6.8778753281      6.8778753281
    398.6355285645     53.3333282471      9.4773025513      9.4773025513
    378.3626403809     53.3333282471      1.0374324322      1.0374324322
    378.2366943359     26.6666698456     -0.0143724680     -0.0143724680
    398.6355285645     53.3333282471      9.4773025513      9.4773025513
    398.7405090332     80.0000000000     10.8880853653     10.8880853653
    378.4885864258     80.0000000000      2.2962827682      2.2962827682
    378.3626403809     53.3333282471      1.0374324322      1.0374324322
    398.7405090332     80.0000000000     10.8880853653     10.8880853653
    398.8454589844    106.6666717529      9.3805274963      9.3805274963
    378.6145629883    106.6666717529      3.3864376545      3.3864376545
    378.4885864258     80.0000000000      2.2962827682      2.2962827682
    398.8454589844    106.6666717529      9.3805274963      9.3805274963
    398.9504089355    133.3333282471      5.4640126228      5.4640126228
    378.7405090332    133.3333282471      4.1163997650      4.1163997650
    378.6145629883    106.6666717529      3.3864376545      3.3864376545
    398.9504089355    133.3333282471      5.4640126228      5.4640126228
    399.0553588867    160.0000000000      1.4122999907      1.4122999907
    378.8664550781    160.0000000000      4.2775402069      4.2775402069
    378.7405090332    133.3333282471      4.1163997650      4.1163997650
    399.0553588867    160.0000000000      1.4122999907      1.4122999907
    399.1603393555    186.6666717529     -0.5807999969     -0.5807999969
    378.9924011230    186.6666717529      3.4231600761      3.4231600761
    378.8664550781    160.0000000000      4.2775402069      4.2775402069
    399.1603393555    186.6666717529     -0.5807999969     -0.5807999969
    399.2652893066    213.3333282471     -0.0253374875     -0.0253374875
    379.1183471680    213.3333282471      1.1671625376      1.1671625376
    378.9924011230    186.6666717529      3.4231600761      3.4231600761
    399.2652893066    213.3333282471     -0.0253374875     -0.0253374875
    399.3702392578    240.0000000000      1.7674951553      1.7674951553
    379.2442932129    240.0000000000     -2.0022525787     -2.0022525787
    379.1183471680    213.3333282471      1.1671625376      1.1671625376
    399.3702392578    240.0000000000      1.7674951553      1.7674951553
    399.4752197266    266.6666564941      3.1126127243      3.1126127243
    379.3702392578    266.6666564941     -4.4133424759     -4.4133424759
    379.2442932129    240.0000000000     -2.0022525787     -2.0022525787
    399.4752197266    266.6666564941      3.1126127243      3.1126127243
    399.5801696777    293.3333435059      3.5102376938      3.5102376938
    379.4961853027    293.3333435059     -4.1469626427     -4.1469626427
    379.3702392578    266.6666564941     -4.4133424759     -4.4133424759
    399.5801696777    293.3333435059      3.5102376938      3.5102376938
    399.6851196289    320.0000000000      3.6677548885      3.6677548885
    379.6221618652    320.0000000000     -0.7315649986     -0.7315649986
    379.4961853027    293.3333435059     -4.1469626427     -4.1469626427
    399.6851196289    320.0000000000      3.6677548885      3.6677548885
    399.7900695801    346.6666564941      4.0317096710      4.0317096710
    379.7481079102    346.6666564941      3.8679323196      3.8679323196
    379.6221618652    320.0000000000     -0.7315649986     -0.7315649986
    399.7900695801    346.6666564941      4.0317096710      4.0317096710
    399.8950500488    373.3333435059      4.0728998184      4.0728998184
    379.8740539551    373.3333435059      6.3744421005      6.3744421005
    379.7481079102    346.6666564941      3.8679323196      3.8679323196
    399.8950500488    373.3333435059      4.0728998184      4.0728998184
    400.0000000000    400.0000000000      4.0728998184      4.0728998184
    380.0000000000    400.0000000000      6.3744421005      6.3744421005
    379.8740539551    373.3333435059      6.3744421005      6.3744421005
    378.1107482910      0.0000000000     -0.0143724680     -0.0143724680
    378.2366943359     26.6666698456     -0.0143724680     -0.0143724680
    357.9428100586     26.6666698456     -6.1874399185     -6.1874399185
    357.7958679199      0.0000000000     -6.1874399185     -6.1874399185
    378.2366943359     26.6666698456     -0.0143724680     -0.0143724680
    378.3626403809     53.3333282471      1.0374324322      1.0374324322
    358.0897521973     53.3333282471    -11.5361747742    -11.5361747742
    357.9428100586     26.6666698456     -6.1874399185     -6.1874399185
    378.3626403809     53.3333282471      1.0374324322      1.0374324322
    378.4885864258     80.0000000000      2.2962827682      2.2962827682
    358.2366943359     80.0000000000    -14.3935985565    -14.3935985565
    358.0897521973     53.3333282471    -11.5361747742    -11.5361747742
    378.4885864258     80.0000000000      2.2962827682      2.2962827682
    378.6145629883    106.6666717529      3.3864376545      3.3864376545
    358.3836364746    106.6666717529    -11.1538944244    -11.1538944244
    358.2366943359     80.0000000000    -14.3935985565    -14.3935985565
    378.6145629883    106.6666717529      3.3864376545      3.3864376545
    378.7405090332    133.3333282471      4.1163997650      4.1163997650
    358.5305786133    133.3333282471     -2.9428775311     -2.9428775311
    358.3836364746    106.6666717529    -11.1538944244    -11.1538944244
    378.7405090332    133.3333282471      4.1163997650      4.1163997650
    378.8664550781    160.0000000000      4.2775402069      4.2775402069
    358.6775207520    160.0000000000      5.1147928238      5.1147928238
    358.5305786133    133.3333282471     -2.9428775311     -2.9428775311
    378.8664550781    160.0000000000      4.2775402069      4.2775402069
    378.9924011230    186.6666717529      3.4231600761      3.4231600761
    358.8244628906    186.6666717529      7.6612949371      7.6612949371
    358.6775207520    160.0000000000      5.1147928238      5.1147928238
    378.9924011230    186.6666717529      3.4231600761      3.4231600761
    379.1183471680    213.3333282471      1.1671625376      1.1671625376
    358.9714050293    213.3333282471      3.1448276043      3.1448276043
    358.8244628906    186.6666717529      7.6612949371      7.6612949371
    379.1183471680    213.3333282471      1.1671625376      1.1671625376
    379.2442932129    240.0000000000     -2.0022525787     -2.0022525787
    359.1183471680    240.0000000000     -4.7989501953     -4.7989501953
    358.9714050293    213.3333282471      3.1448276043      3.1448276043
    379.2442932129    240.0000000000     -2.0022525787     -2.0022525787
    379.3702392578    266.6666564941     -4.4133424759     -4.4133424759
    359.2652893066    266.6666564941    -10.1499576569    -10.1499576569
    359.1183471680    240.0000000000     -4.7989501953     -4.7989501953
    379.3702392578    266.6666564941     -4.4133424759     -4.4133424759
    379.4961853027    293.3333435059     -4.1469626427     -4.1469626427
    359.4122314453    293.3333435059     -9.4631671906     -9.4631671906
    359.2652893066    266.6666564941    -10.1499576569    -10.1499576569
    379.4961853027    293.3333435059     -4.1469626427     -4.1469626427
    379.6221618652    320.0000000000     -0.7315649986     -0.7315649986
    359.5591735840    320.0000000000     -4.2787575722     -4.2787575722
    359.4122314453    293.3333435059     -9.4631671906     -9.4631671906