 VARIABLES= "X","Y","Z","yita"  
ZONE N=                                        3000 E=                              750 F=FEPOINT, ET=QUADRILATERAL
    500.0000000000      0.0000000000      0.0135025382      0.0135025382
    500.0000000000     26.6666698456      0.0135025382      0.0135025382
    479.7061157227     26.6666698456      0.0135025382      0.0135025382
    479.6851196289      0.0000000000      0.0135025382      0.0135025382
    500.0000000000     26.6666698456      0.0135025382      0.0135025382
    500.0000000000     53.3333282471      0.0117950141      0.0117950141
    479.7271118164     53.3333282471      0.0117950141      0.0117950141
    479.7061157227     26.6666698456      0.0135025382      0.0135025382
    500.0000000000     53.3333282471      0.0117950141      0.0117950141
    500.0000000000     80.0000000000      0.0235049427      0.0235049427
    479.7481079102     80.0000000000      0.0235049427      0.0235049427
    479.7271118164     53.3333282471      0.0117950141      0.0117950141
    500.0000000000     80.0000000000      0.0235049427      0.0235049427
    500.0000000000    106.6666717529      0.0366075039      0.0366075039
    479.7691040039    106.6666717529      0.0366075039      0.0366075039
    479.7481079102     80.0000000000      0.0235049427      0.0235049427
    500.0000000000    106.6666717529      0.0366075039      0.0366075039
    500.0000000000    133.3333282471      0.0384025276      0.0384025276
    479.7900695801    133.3333282471      0.0384025276      0.0384025276
    479.7691040039    106.6666717529      0.0366075039      0.0366075039
    500.0000000000    133.3333282471      0.0384025276      0.0384025276
    500.0000000000    160.0000000000      0.0469975173      0.0469975173
    479.8110656738    160.0000000000      0.0469975173      0.0469975173
    479.7900695801    133.3333282471      0.0384025276      0.0384025276
    500.0000000000    160.0000000000      0.0469975173      0.0469975173
    500.0000000000    186.6666717529      0.0577199757      0.0577199757
    479.8320617676    186.6666717529      0.0577199757      0.0577199757
    479.8110656738    160.0000000000      0.0469975173      0.0469975173
    500.0000000000    186.6666717529      0.0577199757      0.0577199757
    500.0000000000    213.3333282471      0.0624099970      0.0624099970
    479.8530578613    213.3333282471      0.0624099970      0.0624099970
    479.8320617676    186.6666717529      0.0577199757      0.0577199757
    500.0000000000    213.3333282471      0.0624099970      0.0624099970
    500.0000000000    240.0000000000      0.0654549897      0.0654549897
    479.8740539551    240.0000000000      0.0654549897      0.0654549897
    479.8530578613    213.3333282471      0.0624099970      0.0624099970
    500.0000000000    240.0000000000      0.0654549897      0.0654549897
    500.0000000000    266.6666564941      0.0664975047      0.0664975047
    479.8950500488    266.6666564941      0.0664975047      0.0664975047
    479.8740539551    240.0000000000      0.0654549897      0.0654549897
    500.0000000000    266.6666564941      0.0664975047      0.0664975047
    500.0000000000    293.3333435059      0.0673800111      0.0673800111
    479.9160156250    293.3333435059      0.0673800111      0.0673800111
    479.8950500488    266.6666564941      0.0664975047      0.0664975047
    500.0000000000    293.3333435059      0.0673800111      0.0673800111
    500.0000000000    320.0000000000      0.0705799758      0.0705799758
    479.9370422363    320.0000000000      0.0705799758      0.0705799758
    479.9160156250    293.3333435059      0.0673800111      0.0673800111
    500.0000000000    320.0000000000      0.0705799758      0.0705799758
    500.0000000000    346.6666564941      0.0747925341      0.0747925341
    479.9580078125    346.6666564941      0.0747925341      0.0747925341
    479.9370422363    320.0000000000      0.0705799758      0.0705799758
    500.0000000000    346.6666564941      0.0747925341      0.0747925341
    500.0000000000    373.3333435059      0.0779525042      0.0779525042
    479.9790039062    373.3333435059      0.0779525042      0.0779525042
    479.9580078125    346.6666564941      0.0747925341      0.0747925341
    500.0000000000    373.3333435059      0.0779525042      0.0779525042
    500.0000000000    400.0000000000      0.0779525042      0.0779525042
    480.0000000000    400.0000000000      0.0779525042      0.0779525042
    479.9790039062    373.3333435059      0.0779525042      0.0779525042
    479.6851196289      0.0000000000      0.0135025382      0.0135025382
    479.7061157227     26.6666698456      0.0135025382      0.0135025382
    459.4122314453     26.6666698456      3.0573725700      3.0573725700
    459.3702392578      0.0000000000      3.0573725700      3.0573725700
    479.7061157227     26.6666698456      0.0135025382      0.0135025382
    479.7271118164     53.3333282471      0.0117950141      0.0117950141
    459.4542236328     53.3333282471      3.0530824661      3.0530824661
    459.4122314453     26.6666698456      3.0573725700      3.0573725700
    479.7271118164     53.3333282471      0.0117950141      0.0117950141
    479.7481079102     80.0000000000      0.0235049427      0.0235049427
    459.4961853027     80.0000000000      3.0558176041      3.0558176041
    459.4542236328     53.3333282471      3.0530824661      3.0530824661
    479.7481079102     80.0000000000      0.0235049427      0.0235049427
    479.7691040039    106.6666717529      0.0366075039      0.0366075039
    459.5381774902    106.6666717529      3.0644650459      3.0644650459
    459.4961853027     80.0000000000      3.0558176041      3.0558176041
    479.7691040039    106.6666717529      0.0366075039      0.0366075039
    479.7900695801    133.3333282471      0.0384025276      0.0384025276
    459.5801696777    133.3333282471      3.0709824562      3.0709824562
    459.5381774902    106.6666717529      3.0644650459      3.0644650459
    479.7900695801    133.3333282471      0.0384025276      0.0384025276
    479.8110656738    160.0000000000      0.0469975173      0.0469975173
    459.6221618652    160.0000000000      3.0666775703      3.0666775703
    459.5801696777    133.3333282471      3.0709824562      3.0709824562
    479.8110656738    160.0000000000      0.0469975173      0.0469975173
    479.8320617676    186.6666717529      0.0577199757      0.0577199757
    459.6641235352    186.6666717529      3.0474598408      3.0474598408
    459.6221618652    160.0000000000      3.0666775703      3.0666775703
    479.8320617676    186.6666717529      0.0577199757      0.0577199757
    479.8530578613    213.3333282471      0.0624099970      0.0624099970
    459.7061157227    213.3333282471      3.0187072754      3.0187072754
    459.6641235352    186.6666717529      3.0474598408      3.0474598408
    479.8530578613    213.3333282471      0.0624099970      0.0624099970
    479.8740539551    240.0000000000      0.0654549897      0.0654549897
    459.7481079102    240.0000000000      2.9931073189      2.9931073189
    459.7061157227    213.3333282471      3.0187072754      3.0187072754
    479.8740539551    240.0000000000      0.0654549897      0.0654549897
    479.8950500488    266.6666564941      0.0664975047      0.0664975047
    459.7900695801    266.6666564941      2.9806051254      2.9806051254
    459.7481079102    240.0000000000      2.9931073189      2.9931073189
    479.8950500488    266.6666564941      0.0664975047      0.0664975047
    479.9160156250    293.3333435059      0.0673800111      0.0673800111
    459.8320617676    293.3333435059      2.9831299782      2.9831299782
    459.7900695801    266.6666564941      2.9806051254      2.9806051254
    479.9160156250    293.3333435059      0.0673800111      0.0673800111
    479.9370422363    320.0000000000      0.0705799758      0.0705799758
    459.8740539551    320.0000000000      2.9950652122      2.9950652122
    459.8320617676    293.3333435059      2.9831299782      2.9831299782
    479.9370422363    320.0000000000      0.0705799758      0.0705799758
    479.9580078125    346.6666564941      0.0747925341      0.0747925341
    459.9160156250    346.6666564941      3.0062651634      3.0062651634
    459.8740539551    320.0000000000      2.9950652122      2.9950652122
    479.9580078125    346.6666564941      0.0747925341      0.0747925341
    479.9790039062    373.3333435059      0.0779525042      0.0779525042
    459.9580078125    373.3333435059      3.0119450092      3.0119450092
    459.9160156250    346.6666564941      3.0062651634      3.0062651634
    479.9790039062    373.3333435059      0.0779525042      0.0779525042
    480.0000000000    400.0000000000      0.0779525042      0.0779525042
    460.0000000000    400.0000000000      3.0119450092      3.0119450092
    459.9580078125    373.3333435059      3.0119450092      3.0119450092
    459.3702392578      0.0000000000      3.0573725700      3.0573725700
    459.4122314453     26.6666698456      3.0573725700      3.0573725700
    439.1183471680     26.6666698456      5.6441574097      5.6441574097
    439.0553588867      0.0000000000      5.6441574097      5.6441574097
    459.4122314453     26.6666698456      3.0573725700      3.0573725700
    459.4542236328     53.3333282471      3.0530824661      3.0530824661
    439.1813049316     53.3333282471      5.6253099442      5.6253099442
    439.1183471680     26.6666698456      5.6441574097      5.6441574097
    459.4542236328     53.3333282471      3.0530824661      3.0530824661
    459.4961853027     80.0000000000      3.0558176041      3.0558176041
    439.2442932129     80.0000000000      5.6018848419      5.6018848419
    439.1813049316     53.3333282471      5.6253099442      5.6253099442
    459.4961853027     80.0000000000      3.0558176041      3.0558176041
    459.5381774902    106.6666717529      3.0644650459      3.0644650459
    439.3072814941    106.6666717529      5.5826649666      5.5826649666
    439.2442932129     80.0000000000      5.6018848419      5.6018848419
    459.5381774902    106.6666717529      3.0644650459      3.0644650459
    459.5801696777    133.3333282471      3.0709824562      3.0709824562
    439.3702392578    133.3333282471      5.5811948776      5.5811948776
    439.3072814941    106.6666717529      5.5826649666      5.5826649666
    459.5801696777    133.3333282471      3.0709824562      3.0709824562
    459.6221618652    160.0000000000      3.0666775703      3.0666775703
    439.4332275391    160.0000000000      5.6072196960      5.6072196960
    439.3702392578    133.3333282471      5.5811948776      5.5811948776
    459.6221618652    160.0000000000      3.0666775703      3.0666775703
    459.6641235352    186.6666717529      3.0474598408      3.0474598408
    439.4961853027    186.6666717529      5.6564273834      5.6564273834
    439.4332275391    160.0000000000      5.6072196960      5.6072196960
    459.6641235352    186.6666717529      3.0474598408      3.0474598408
    459.7061157227    213.3333282471      3.0187072754      3.0187072754
    439.5591735840    213.3333282471      5.7077045441      5.7077045441
    439.4961853027    186.6666717529      5.6564273834      5.6564273834
    459.7061157227    213.3333282471      3.0187072754      3.0187072754
    459.7481079102    240.0000000000      2.9931073189      2.9931073189
    439.6221618652    240.0000000000      5.7350902557      5.7350902557
    439.5591735840    213.3333282471      5.7077045441      5.7077045441
    459.7481079102    240.0000000000      2.9931073189      2.9931073189
    459.7900695801    266.6666564941      2.9806051254      2.9806051254
    439.6851196289    266.6666564941      5.7250776291      5.7250776291
    439.6221618652    240.0000000000      5.7350902557      5.7350902557
    459.7900695801    266.6666564941      2.9806051254      2.9806051254
    459.8320617676    293.3333435059      2.9831299782      2.9831299782
    439.7481079102    293.3333435059      5.6837325096      5.6837325096
    439.6851196289    266.6666564941      5.7250776291      5.7250776291
    459.8320617676    293.3333435059      2.9831299782      2.9831299782
    459.8740539551    320.0000000000      2.9950652122      2.9950652122
    439.8110656738    320.0000000000      5.6306676865      5.6306676865
    439.7481079102    293.3333435059      5.6837325096      5.6837325096
    459.8740539551    320.0000000000      2.9950652122      2.9950652122
    459.9160156250    346.6666564941      3.0062651634      3.0062651634
    439.8740539551    346.6666564941      5.5881052017      5.5881052017
    439.8110656738    320.0000000000      5.6306676865      5.6306676865
    459.9160156250    346.6666564941      3.0062651634      3.0062651634
    459.9580078125    373.3333435059      3.0119450092      3.0119450092
    439.9370422363    373.3333435059      5.5728473663      5.5728473663
    439.8740539551    346.6666564941      5.5881052017      5.5881052017
    459.9580078125    373.3333435059      3.0119450092      3.0119450092
    460.0000000000    400.0000000000      3.0119450092      3.0119450092
    440.0000000000    400.0000000000      5.5728473663      5.5728473663
    439.9370422363    373.3333435059      5.5728473663      5.5728473663
    439.0553588867      0.0000000000      5.6441574097      5.6441574097
    439.1183471680     26.6666698456      5.6441574097      5.6441574097
    418.8244628906     26.6666698456      8.4655418396      8.4655418396
    418.7405090332      0.0000000000      8.4655418396      8.4655418396
    439.1183471680     26.6666698456      5.6441574097      5.6441574097
    439.1813049316     53.3333282471      5.6253099442      5.6253099442
    418.9084167480     53.3333282471      8.4912576675      8.4912576675
    418.8244628906     26.6666698456      8.4655418396      8.4655418396
    439.1813049316     53.3333282471      5.6253099442      5.6253099442
    439.2442932129     80.0000000000      5.6018848419      5.6018848419
    418.9924011230     80.0000000000      8.7261295319      8.7261295319
    418.9084167480     53.3333282471      8.4912576675      8.4912576675
    439.2442932129     80.0000000000      5.6018848419      5.6018848419
    439.3072814941    106.6666717529      5.5826649666      5.5826649666
    419.0763549805    106.6666717529      9.1399698257      9.1399698257
    418.9924011230     80.0000000000      8.7261295319      8.7261295319
    439.3072814941    106.6666717529      5.5826649666      5.5826649666
    439.3702392578    133.3333282471      5.5811948776      5.5811948776
    419.1603393555    133.3333282471      9.4415721893      9.4415721893
    419.0763549805    106.6666717529      9.1399698257      9.1399698257
    439.3702392578    133.3333282471      5.5811948776      5.5811948776
    439.4332275391    160.0000000000      5.6072196960      5.6072196960
    419.2442932129    160.0000000000      9.2834205627      9.2834205627
    419.1603393555    133.3333282471      9.4415721893      9.4415721893
    439.4332275391    160.0000000000      5.6072196960      5.6072196960
    439.4961853027    186.6666717529      5.6564273834      5.6564273834
    419.3282775879    186.6666717529      8.5671119690      8.5671119690
    419.2442932129    160.0000000000      9.2834205627      9.2834205627
    439.4961853027    186.6666717529      5.6564273834      5.6564273834
    439.5591735840    213.3333282471      5.7077045441      5.7077045441
    419.4122314453    213.3333282471      7.5845279694      7.5845279694
    419.3282775879    186.6666717529      8.5671119690      8.5671119690
    439.5591735840    213.3333282471      5.7077045441      5.7077045441
    439.6221618652    240.0000000000      5.7350902557      5.7350902557
    419.4961853027    240.0000000000      6.8317127228      6.8317127228
    419.4122314453    213.3333282471      7.5845279694      7.5845279694
    439.6221618652    240.0000000000      5.7350902557      5.7350902557
    439.6851196289    266.6666564941      5.7250776291      5.7250776291
    419.5801696777    266.6666564941      6.6604599953      6.6604599953
    419.4961853027    240.0000000000      6.8317127228      6.8317127228
    439.6851196289    266.6666564941      5.7250776291      5.7250776291
    439.7481079102    293.3333435059      5.6837325096      5.6837325096
    419.6641235352    293.3333435059      7.0791673660      7.0791673660
    419.5801696777    266.6666564941      6.6604599953      6.6604599953
    439.7481079102    293.3333435059      5.6837325096      5.6837325096
    439.8110656738    320.0000000000      5.6306676865      5.6306676865
    419.7481079102    320.0000000000      7.8012375832      7.8012375832
    419.6641235352    293.3333435059      7.0791673660      7.0791673660
    439.8110656738    320.0000000000      5.6306676865      5.6306676865
    439.8740539551    346.6666564941      5.5881052017      5.5881052017
    419.8320617676    346.6666564941      8.4243574142      8.4243574142
    419.7481079102    320.0000000000      7.8012375832      7.8012375832
    439.8740539551    346.6666564941      5.5881052017      5.5881052017
    439.9370422363    373.3333435059      5.5728473663      5.5728473663
    419.9160156250    373.3333435059      8.6478500366      8.6478500366
    419.8320617676    346.6666564941      8.4243574142      8.4243574142
    439.9370422363    373.3333435059      5.5728473663      5.5728473663
    440.0000000000    400.0000000000      5.5728473663      5.5728473663
    420.0000000000    400.0000000000      8.6478500366      8.6478500366
    419.9160156250    373.3333435059      8.6478500366      8.6478500366
    418.7405090332      0.0000000000      8.4655418396      8.4655418396
    418.8244628906     26.6666698456      8.4655418396      8.4655418396
    398.5305786133     26.6666698456      8.7401380539      8.7401380539
    398.4256286621      0.0000000000      8.7401380539      8.7401380539
    418.8244628906     26.6666698456      8.4655418396      8.4655418396
    418.9084167480     53.3333282471      8.4912576675      8.4912576675
    398.6355285645     53.3333282471      7.3639745712      7.3639745712
    398.5305786133     26.6666698456      8.7401380539      8.7401380539
    418.9084167480     53.3333282471      8.4912576675      8.4912576675
    418.9924011230     80.0000000000      8.7261295319      8.7261295319
    398.7405090332     80.0000000000      7.6104569435      7.6104569435
    398.6355285645     53.3333282471      7.3639745712      7.3639745712
    418.9924011230     80.0000000000      8.7261295319      8.7261295319
    419.0763549805    106.6666717529      9.1399698257      9.1399698257
    398.8454589844    106.6666717529     10.2144775391     10.2144775391
    398.7405090332     80.0000000000      7.6104569435      7.6104569435
    419.0763549805    106.6666717529      9.1399698257      9.1399698257
    419.1603393555    133.3333282471      9.4415721893      9.4415721893
    398.9504089355    133.3333282471     13.5987854004     13.5987854004
    398.8454589844    106.6666717529     10.2144775391     10.2144775391
    419.1603393555    133.3333282471      9.4415721893      9.4415721893
    419.2442932129    160.0000000000      9.2834205627      9.2834205627
    399.0553588867    160.0000000000     15.2420768738     15.2420768738
    398.9504089355    133.3333282471     13.5987854004     13.5987854004
    419.2442932129    160.0000000000      9.2834205627      9.2834205627
    419.3282775879    186.6666717529      8.5671119690      8.5671119690
    399.1603393555    186.6666717529     13.8377199173     13.8377199173
    399.0553588867    160.0000000000     15.2420768738     15.2420768738
    419.3282775879    186.6666717529      8.5671119690      8.5671119690
    419.4122314453    213.3333282471      7.5845279694      7.5845279694
    399.2652893066    213.3333282471     10.3067655563     10.3067655563
    399.1603393555    186.6666717529     13.8377199173     13.8377199173
    419.4122314453    213.3333282471      7.5845279694      7.5845279694
    419.4961853027    240.0000000000      6.8317127228      6.8317127228
    399.3702392578    240.0000000000      6.8988604546      6.8988604546
    399.2652893066    213.3333282471     10.3067655563     10.3067655563
    419.4961853027    240.0000000000      6.8317127228      6.8317127228
    419.5801696777    266.6666564941      6.6604599953      6.6604599953
    399.4752197266    266.6666564941      5.4486999512      5.4486999512
    399.3702392578    240.0000000000      6.8988604546      6.8988604546
    419.5801696777    266.6666564941      6.6604599953      6.6604599953
    419.6641235352    293.3333435059      7.0791673660      7.0791673660
    399.5801696777    293.3333435059      6.3701071739      6.3701071739
    399.4752197266    266.6666564941      5.4486999512      5.4486999512
    419.6641235352    293.3333435059      7.0791673660      7.0791673660
    419.7481079102    320.0000000000      7.8012375832      7.8012375832
    399.6851196289    320.0000000000      8.7598419189      8.7598419189
    399.5801696777    293.3333435059      6.3701071739      6.3701071739
    419.7481079102    320.0000000000      7.8012375832      7.8012375832
    419.8320617676    346.6666564941      8.4243574142      8.4243574142
    399.7900695801    346.6666564941     11.1021051407     11.1021051407
    399.6851196289    320.0000000000      8.7598419189      8.7598419189
    419.8320617676    346.6666564941      8.4243574142      8.4243574142
    419.9160156250    373.3333435059      8.6478500366      8.6478500366
    399.8950500488    373.3333435059     12.1749534607     12.1749534607
    399.7900695801    346.6666564941     11.1021051407     11.1021051407
    419.9160156250    373.3333435059      8.6478500366      8.6478500366
    420.0000000000    400.0000000000      8.6478500366      8.6478500366
    400.0000000000    400.0000000000     12.1749534607     12.1749534607
    399.8950500488    373.3333435059     12.1749534607     12.1749534607
    398.4256286621      0.0000000000      8.7401380539      8.7401380539
    398.5305786133     26.6666698456      8.7401380539      8.7401380539
    378.2366943359     26.6666698456      6.5414924622      6.5414924622
    378.1107482910      0.0000000000      6.5414924622      6.5414924622
    398.5305786133     26.6666698456      8.7401380539      8.7401380539
    398.6355285645     53.3333282471      7.3639745712      7.3639745712
    378.3626403809     53.3333282471      1.9748451710      1.9748451710
    378.2366943359     26.6666698456      6.5414924622      6.5414924622
    398.6355285645     53.3333282471      7.3639745712      7.3639745712
    398.7405090332     80.0000000000      7.6104569435      7.6104569435
    378.4885864258     80.0000000000      0.3318473697      0.3318473697
    378.3626403809     53.3333282471      1.9748451710      1.9748451710
    398.7405090332     80.0000000000      7.6104569435      7.6104569435
    398.8454589844    106.6666717529     10.2144775391     10.2144775391
    378.6145629883    106.6666717529      4.0500602722      4.0500602722
    378.4885864258     80.0000000000      0.3318473697      0.3318473697
    398.8454589844    106.6666717529     10.2144775391     10.2144775391
    398.9504089355    133.3333282471     13.5987854004     13.5987854004
    378.7405090332    133.3333282471     10.7873096466     10.7873096466
    378.6145629883    106.6666717529      4.0500602722      4.0500602722
    398.9504089355    133.3333282471     13.5987854004     13.5987854004
    399.0553588867    160.0000000000     15.2420768738     15.2420768738
    378.8664550781    160.0000000000     15.8853397369     15.8853397369
    378.7405090332    133.3333282471     10.7873096466     10.7873096466
    399.0553588867    160.0000000000     15.2420768738     15.2420768738
    399.1603393555    186.6666717529     13.8377199173     13.8377199173
    378.9924011230    186.6666717529     16.4281673431     16.4281673431
    378.8664550781    160.0000000000     15.8853397369     15.8853397369
    399.1603393555    186.6666717529     13.8377199173     13.8377199173
    399.2652893066    213.3333282471     10.3067655563     10.3067655563
    379.1183471680    213.3333282471     13.0815353394     13.0815353394
    378.9924011230    186.6666717529     16.4281673431     16.4281673431
    399.2652893066    213.3333282471     10.3067655563     10.3067655563
    399.3702392578    240.0000000000      6.8988604546      6.8988604546
    379.2442932129    240.0000000000      8.7820529938      8.7820529938
    379.1183471680    213.3333282471     13.0815353394     13.0815353394
    399.3702392578    240.0000000000      6.8988604546      6.8988604546
    399.4752197266    266.6666564941      5.4486999512      5.4486999512
    379.3702392578    266.6666564941      6.2030925751      6.2030925751
    379.2442932129    240.0000000000      8.7820529938      8.7820529938
    399.4752197266    266.6666564941      5.4486999512      5.4486999512
    399.5801696777    293.3333435059      6.3701071739      6.3701071739
    379.4961853027    293.3333435059      6.2422800064      6.2422800064
    379.3702392578    266.6666564941      6.2030925751      6.2030925751
    399.5801696777    293.3333435059      6.3701071739      6.3701071739
    399.6851196289    320.0000000000      8.7598419189      8.7598419189
    379.6221618652    320.0000000000      8.0705871582      8.0705871582
    379.4961853027    293.3333435059      6.2422800064      6.2422800064
    399.6851196289    320.0000000000      8.7598419189      8.7598419189
    399.7900695801    346.6666564941     11.1021051407     11.1021051407
    379.7481079102    346.6666564941     10.1322126389     10.1322126389
    379.6221618652    320.0000000000      8.0705871582      8.0705871582
    399.7900695801    346.6666564941     11.1021051407     11.1021051407
    399.8950500488    373.3333435059     12.1749534607     12.1749534607
    379.8740539551    373.3333435059     11.3181095123     11.3181095123
    379.7481079102    346.6666564941     10.1322126389     10.1322126389
    399.8950500488    373.3333435059     12.1749534607     12.1749534607
    400.0000000000    400.0000000000     12.1749534607     12.1749534607
    380.0000000000    400.0000000000     11.3181095123     11.3181095123
    379.8740539551    373.3333435059     11.3181095123     11.3181095123
    378.1107482910      0.0000000000      6.5414924622      6.5414924622
    378.2366943359     26.6666698456      6.5414924622      6.5414924622
    357.9428100586     26.6666698456      9.8923501968      9.8923501968
    357.7958679199      0.0000000000      9.8923501968      9.8923501968
    378.2366943359     26.6666698456      6.5414924622      6.5414924622
    378.3626403809     53.3333282471      1.9748451710      1.9748451710
    358.0897521973     53.3333282471      5.1804051399      5.1804051399
    357.9428100586     26.6666698456      9.8923501968      9.8923501968
    378.3626403809     53.3333282471      1.9748451710      1.9748451710
    378.4885864258     80.0000000000      0.3318473697      0.3318473697
    358.2366943359     80.0000000000      1.5484751463      1.5484751463
    358.0897521973     53.3333282471      5.1804051399      5.1804051399
    378.4885864258     80.0000000000      0.3318473697      0.3318473697
    378.6145629883    106.6666717529      4.0500602722      4.0500602722
    358.3836364746    106.6666717529      1.3824224472      1.3824224472
    358.2366943359     80.0000000000      1.5484751463      1.5484751463
    378.6145629883    106.6666717529      4.0500602722      4.0500602722
    378.7405090332    133.3333282471     10.7873096466     10.7873096466
    358.5305786133    133.3333282471      4.1554298401      4.1554298401
    358.3836364746    106.6666717529      1.3824224472      1.3824224472
    378.7405090332    133.3333282471     10.7873096466     10.7873096466
    378.8664550781    160.0000000000     15.8853397369     15.8853397369
    358.6775207520    160.0000000000      7.5682773590      7.5682773590
    358.5305786133    133.3333282471      4.1554298401      4.1554298401
    378.8664550781    160.0000000000     15.8853397369     15.8853397369
    378.9924011230    186.6666717529     16.4281673431     16.4281673431
    358.8244628906    186.6666717529      9.7918272018      9.7918272018
    358.6775207520    160.0000000000      7.5682773590      7.5682773590
    378.9924011230    186.6666717529     16.4281673431     16.4281673431
    379.1183471680    213.3333282471     13.0815353394     13.0815353394
    358.9714050293    213.3333282471     10.4114923477     10.4114923477
    358.8244628906    186.6666717529      9.7918272018      9.7918272018
    379.1183471680    213.3333282471     13.0815353394     13.0815353394
    379.2442932129    240.0000000000      8.7820529938      8.7820529938
    359.1183471680    240.0000000000      9.9793291092      9.9793291092
    358.9714050293    213.3333282471     10.4114923477     10.4114923477
    379.2442932129    240.0000000000      8.7820529938      8.7820529938
    379.3702392578    266.6666564941      6.2030925751      6.2030925751
    359.2652893066    266.6666564941      9.2082071304      9.2082071304
    359.1183471680    240.0000000000      9.9793291092      9.9793291092
    379.3702392578    266.6666564941      6.2030925751      6.2030925751
    379.4961853027    293.3333435059      6.2422800064      6.2422800064
    359.4122314453    293.3333435059      8.3547124863      8.3547124863
    359.2652893066    266.6666564941      9.2082071304      9.2082071304
    379.4961853027    293.3333435059      6.2422800064      6.2422800064
    379.6221618652    320.0000000000      8.0705871582      8.0705871582
    359.5591735840    320.0000000000      7.2507448196      7.2507448196
    359.4122314453    293.3333435059      8.3547124863      8.3547124863