 VARIABLES= "X","Y","Z","yita"  
ZONE N=                                        3000 E=                              750 F=FEPOINT, ET=QUADRILATERAL
    500.0000000000      0.0000000000      1.8795999289      1.8795999289
    500.0000000000     26.6666698456      1.8795999289      1.8795999289
    479.7061157227     26.6666698456      1.8795999289      1.8795999289
    479.6851196289      0.0000000000      1.8795999289      1.8795999289
    500.0000000000     26.6666698456      1.8795999289      1.8795999289
    500.0000000000     53.3333282471      1.8817900419      1.8817900419
    479.7271118164     53.3333282471      1.8817900419      1.8817900419
    479.7061157227     26.6666698456      1.8795999289      1.8795999289
    500.0000000000     53.3333282471      1.8817900419      1.8817900419
    500.0000000000     80.0000000000      1.8695524931      1.8695524931
    479.7481079102     80.0000000000      1.8695524931      1.8695524931
    479.7271118164     53.3333282471      1.8817900419      1.8817900419
    500.0000000000     80.0000000000      1.8695524931      1.8695524931
    500.0000000000    106.6666717529      1.8565999269      1.8565999269
    479.7691040039    106.6666717529      1.8565999269      1.8565999269
    479.7481079102     80.0000000000      1.8695524931      1.8695524931
    500.0000000000    106.6666717529      1.8565999269      1.8565999269
    500.0000000000    133.3333282471      1.8565574884      1.8565574884
    479.7900695801    133.3333282471      1.8565574884      1.8565574884
    479.7691040039    106.6666717529      1.8565999269      1.8565999269
    500.0000000000    133.3333282471      1.8565574884      1.8565574884
    500.0000000000    160.0000000000      1.8477900028      1.8477900028
    479.8110656738    160.0000000000      1.8477900028      1.8477900028
    479.7900695801    133.3333282471      1.8565574884      1.8565574884
    500.0000000000    160.0000000000      1.8477900028      1.8477900028
    500.0000000000    186.6666717529      1.8366100788      1.8366100788
    479.8320617676    186.6666717529      1.8366100788      1.8366100788
    479.8110656738    160.0000000000      1.8477900028      1.8477900028
    500.0000000000    186.6666717529      1.8366100788      1.8366100788
    500.0000000000    213.3333282471      1.8333699703      1.8333699703
    479.8530578613    213.3333282471      1.8333699703      1.8333699703
    479.8320617676    186.6666717529      1.8366100788      1.8366100788
    500.0000000000    213.3333282471      1.8333699703      1.8333699703
    500.0000000000    240.0000000000      1.8339126110      1.8339126110
    479.8740539551    240.0000000000      1.8339126110      1.8339126110
    479.8530578613    213.3333282471      1.8333699703      1.8333699703
    500.0000000000    240.0000000000      1.8339126110      1.8339126110
    500.0000000000    266.6666564941      1.8363449574      1.8363449574
    479.8950500488    266.6666564941      1.8363449574      1.8363449574
    479.8740539551    240.0000000000      1.8339126110      1.8339126110
    500.0000000000    266.6666564941      1.8363449574      1.8363449574
    500.0000000000    293.3333435059      1.8371174335      1.8371174335
    479.9160156250    293.3333435059      1.8371174335      1.8371174335
    479.8950500488    266.6666564941      1.8363449574      1.8363449574
    500.0000000000    293.3333435059      1.8371174335      1.8371174335
    500.0000000000    320.0000000000      1.8393349648      1.8393349648
    479.9370422363    320.0000000000      1.8393349648      1.8393349648
    479.9160156250    293.3333435059      1.8371174335      1.8371174335
    500.0000000000    320.0000000000      1.8393349648      1.8393349648
    500.0000000000    346.6666564941      1.8412425518      1.8412425518
    479.9580078125    346.6666564941      1.8412425518      1.8412425518
    479.9370422363    320.0000000000      1.8393349648      1.8393349648
    500.0000000000    346.6666564941      1.8412425518      1.8412425518
    500.0000000000    373.3333435059      1.8385374546      1.8385374546
    479.9790039062    373.3333435059      1.8385374546      1.8385374546
    479.9580078125    346.6666564941      1.8412425518      1.8412425518
    500.0000000000    373.3333435059      1.8385374546      1.8385374546
    500.0000000000    400.0000000000      1.8385374546      1.8385374546
    480.0000000000    400.0000000000      1.8385374546      1.8385374546
    479.9790039062    373.3333435059      1.8385374546      1.8385374546
    479.6851196289      0.0000000000      1.8795999289      1.8795999289
    479.7061157227     26.6666698456      1.8795999289      1.8795999289
    459.4122314453     26.6666698456     -1.1749675274     -1.1749675274
    459.3702392578      0.0000000000     -1.1749675274     -1.1749675274
    479.7061157227     26.6666698456      1.8795999289      1.8795999289
    479.7271118164     53.3333282471      1.8817900419      1.8817900419
    459.4542236328     53.3333282471     -1.1684374809     -1.1684374809
    459.4122314453     26.6666698456     -1.1749675274     -1.1749675274
    479.7271118164     53.3333282471      1.8817900419      1.8817900419
    479.7481079102     80.0000000000      1.8695524931      1.8695524931
    459.4961853027     80.0000000000     -1.1705374718     -1.1705374718
    459.4542236328     53.3333282471     -1.1684374809     -1.1684374809
    479.7481079102     80.0000000000      1.8695524931      1.8695524931
    479.7691040039    106.6666717529      1.8565999269      1.8565999269
    459.5381774902    106.6666717529     -1.1821525097     -1.1821525097
    459.4961853027     80.0000000000     -1.1705374718     -1.1705374718
    479.7691040039    106.6666717529      1.8565999269      1.8565999269
    479.7900695801    133.3333282471      1.8565574884      1.8565574884
    459.5801696777    133.3333282471     -1.1948449612     -1.1948449612
    459.5381774902    106.6666717529     -1.1821525097     -1.1821525097
    479.7900695801    133.3333282471      1.8565574884      1.8565574884
    479.8110656738    160.0000000000      1.8477900028      1.8477900028
    459.6221618652    160.0000000000     -1.1969449520     -1.1969449520
    459.5801696777    133.3333282471     -1.1948449612     -1.1948449612
    479.8110656738    160.0000000000      1.8477900028      1.8477900028
    479.8320617676    186.6666717529      1.8366100788      1.8366100788
    459.6641235352    186.6666717529     -1.1809250116     -1.1809250116
    459.6221618652    160.0000000000     -1.1969449520     -1.1969449520
    479.8320617676    186.6666717529      1.8366100788      1.8366100788
    479.8530578613    213.3333282471      1.8333699703      1.8333699703
    459.7061157227    213.3333282471     -1.1506525278     -1.1506525278
    459.6641235352    186.6666717529     -1.1809250116     -1.1809250116
    479.8530578613    213.3333282471      1.8333699703      1.8333699703
    479.8740539551    240.0000000000      1.8339126110      1.8339126110
    459.7481079102    240.0000000000     -1.1202399731     -1.1202399731
    459.7061157227    213.3333282471     -1.1506525278     -1.1506525278
    479.8740539551    240.0000000000      1.8339126110      1.8339126110
    479.8950500488    266.6666564941      1.8363449574      1.8363449574
    459.7900695801    266.6666564941     -1.1028499603     -1.1028499603
    459.7481079102    240.0000000000     -1.1202399731     -1.1202399731
    479.8950500488    266.6666564941      1.8363449574      1.8363449574
    479.9160156250    293.3333435059      1.8371174335      1.8371174335
    459.8320617676    293.3333435059     -1.1025249958     -1.1025249958
    459.7900695801    266.6666564941     -1.1028499603     -1.1028499603
    479.9160156250    293.3333435059      1.8371174335      1.8371174335
    479.9370422363    320.0000000000      1.8393349648      1.8393349648
    459.8740539551    320.0000000000     -1.1135874987     -1.1135874987
    459.8320617676    293.3333435059     -1.1025249958     -1.1025249958
    479.9370422363    320.0000000000      1.8393349648      1.8393349648
    479.9580078125    346.6666564941      1.8412425518      1.8412425518
    459.9160156250    346.6666564941     -1.1254949570     -1.1254949570
    459.8740539551    320.0000000000     -1.1135874987     -1.1135874987
    479.9580078125    346.6666564941      1.8412425518      1.8412425518
    479.9790039062    373.3333435059      1.8385374546      1.8385374546
    459.9580078125    373.3333435059     -1.1360100508     -1.1360100508
    459.9160156250    346.6666564941     -1.1254949570     -1.1254949570
    479.9790039062    373.3333435059      1.8385374546      1.8385374546
    480.0000000000    400.0000000000      1.8385374546      1.8385374546
    460.0000000000    400.0000000000     -1.1360100508     -1.1360100508
    459.9580078125    373.3333435059     -1.1360100508     -1.1360100508
    459.3702392578      0.0000000000     -1.1749675274     -1.1749675274
    459.4122314453     26.6666698456     -1.1749675274     -1.1749675274
    439.1183471680     26.6666698456     -4.0388898849     -4.0388898849
    439.0553588867      0.0000000000     -4.0388898849     -4.0388898849
    459.4122314453     26.6666698456     -1.1749675274     -1.1749675274
    459.4542236328     53.3333282471     -1.1684374809     -1.1684374809
    439.1813049316     53.3333282471     -4.0264425278     -4.0264425278
    439.1183471680     26.6666698456     -4.0388898849     -4.0388898849
    459.4542236328     53.3333282471     -1.1684374809     -1.1684374809
    459.4961853027     80.0000000000     -1.1705374718     -1.1705374718
    439.2442932129     80.0000000000     -4.0038900375     -4.0038900375
    439.1813049316     53.3333282471     -4.0264425278     -4.0264425278
    459.4961853027     80.0000000000     -1.1705374718     -1.1705374718
    459.5381774902    106.6666717529     -1.1821525097     -1.1821525097
    439.3072814941    106.6666717529     -3.9721825123     -3.9721825123
    439.2442932129     80.0000000000     -4.0038900375     -4.0038900375
    459.5381774902    106.6666717529     -1.1821525097     -1.1821525097
    459.5801696777    133.3333282471     -1.1948449612     -1.1948449612
    439.3702392578    133.3333282471     -3.9468226433     -3.9468226433
    439.3072814941    106.6666717529     -3.9721825123     -3.9721825123
    459.5801696777    133.3333282471     -1.1948449612     -1.1948449612
    459.6221618652    160.0000000000     -1.1969449520     -1.1969449520
    439.4332275391    160.0000000000     -3.9500424862     -3.9500424862
    439.3702392578    133.3333282471     -3.9468226433     -3.9468226433
    459.6221618652    160.0000000000     -1.1969449520     -1.1969449520
    459.6641235352    186.6666717529     -1.1809250116     -1.1809250116
    439.4961853027    186.6666717529     -3.9904201031     -3.9904201031
    439.4332275391    160.0000000000     -3.9500424862     -3.9500424862
    459.6641235352    186.6666717529     -1.1809250116     -1.1809250116
    459.7061157227    213.3333282471     -1.1506525278     -1.1506525278
    439.5591735840    213.3333282471     -4.0503873825     -4.0503873825
    439.4961853027    186.6666717529     -3.9904201031     -3.9904201031
    459.7061157227    213.3333282471     -1.1506525278     -1.1506525278
    459.7481079102    240.0000000000     -1.1202399731     -1.1202399731
    439.6221618652    240.0000000000     -4.0951123238     -4.0951123238
    439.5591735840    213.3333282471     -4.0503873825     -4.0503873825
    459.7481079102    240.0000000000     -1.1202399731     -1.1202399731
    459.7900695801    266.6666564941     -1.1028499603     -1.1028499603
    439.6851196289    266.6666564941     -4.0970821381     -4.0970821381
    439.6221618652    240.0000000000     -4.0951123238     -4.0951123238
    459.7900695801    266.6666564941     -1.1028499603     -1.1028499603
    459.8320617676    293.3333435059     -1.1025249958     -1.1025249958
    439.7481079102    293.3333435059     -4.0556173325     -4.0556173325
    439.6851196289    266.6666564941     -4.0970821381     -4.0970821381
    459.8320617676    293.3333435059     -1.1025249958     -1.1025249958
    459.8740539551    320.0000000000     -1.1135874987     -1.1135874987
    439.8110656738    320.0000000000     -3.9939374924     -3.9939374924
    439.7481079102    293.3333435059     -4.0556173325     -4.0556173325
    459.8740539551    320.0000000000     -1.1135874987     -1.1135874987
    459.9160156250    346.6666564941     -1.1254949570     -1.1254949570
    439.8740539551    346.6666564941     -3.9405648708     -3.9405648708
    439.8110656738    320.0000000000     -3.9939374924     -3.9939374924
    459.9160156250    346.6666564941     -1.1254949570     -1.1254949570
    459.9580078125    373.3333435059     -1.1360100508     -1.1360100508
    439.9370422363    373.3333435059     -3.9210474491     -3.9210474491
    439.8740539551    346.6666564941     -3.9405648708     -3.9405648708
    459.9580078125    373.3333435059     -1.1360100508     -1.1360100508
    460.0000000000    400.0000000000     -1.1360100508     -1.1360100508
    440.0000000000    400.0000000000     -3.9210474491     -3.9210474491
    439.9370422363    373.3333435059     -3.9210474491     -3.9210474491
    439.0553588867      0.0000000000     -4.0388898849     -4.0388898849
    439.1183471680     26.6666698456     -4.0388898849     -4.0388898849
    418.8244628906     26.6666698456     -6.9042830467     -6.9042830467
    418.7405090332      0.0000000000     -6.9042830467     -6.9042830467
    439.1183471680     26.6666698456     -4.0388898849     -4.0388898849
    439.1813049316     53.3333282471     -4.0264425278     -4.0264425278
    418.9084167480     53.3333282471     -6.8219070435     -6.8219070435
    418.8244628906     26.6666698456     -6.9042830467     -6.9042830467
    439.1813049316     53.3333282471     -4.0264425278     -4.0264425278
    439.2442932129     80.0000000000     -4.0038900375     -4.0038900375
    418.9924011230     80.0000000000     -7.0211172104     -7.0211172104
    418.9084167480     53.3333282471     -6.8219070435     -6.8219070435
    439.2442932129     80.0000000000     -4.0038900375     -4.0038900375
    439.3072814941    106.6666717529     -3.9721825123     -3.9721825123
    419.0763549805    106.6666717529     -7.5795974731     -7.5795974731
    418.9924011230     80.0000000000     -7.0211172104     -7.0211172104
    439.3072814941    106.6666717529     -3.9721825123     -3.9721825123
    439.3702392578    133.3333282471     -3.9468226433     -3.9468226433
    419.1603393555    133.3333282471     -8.1863746643     -8.1863746643
    419.0763549805    106.6666717529     -7.5795974731     -7.5795974731
    439.3702392578    133.3333282471     -3.9468226433     -3.9468226433
    439.4332275391    160.0000000000     -3.9500424862     -3.9500424862
    419.2442932129    160.0000000000     -8.3354101181     -8.3354101181
    419.1603393555    133.3333282471     -8.1863746643     -8.1863746643
    439.4332275391    160.0000000000     -3.9500424862     -3.9500424862
    439.4961853027    186.6666717529     -3.9904201031     -3.9904201031
    419.3282775879    186.6666717529     -7.7568621635     -7.7568621635
    419.2442932129    160.0000000000     -8.3354101181     -8.3354101181
    439.4961853027    186.6666717529     -3.9904201031     -3.9904201031
    439.5591735840    213.3333282471     -4.0503873825     -4.0503873825
    419.4122314453    213.3333282471     -6.6843848228     -6.6843848228
    419.3282775879    186.6666717529     -7.7568621635     -7.7568621635
    439.5591735840    213.3333282471     -4.0503873825     -4.0503873825
    439.6221618652    240.0000000000     -4.0951123238     -4.0951123238
    419.4961853027    240.0000000000     -5.7117147446     -5.7117147446
    419.4122314453    213.3333282471     -6.6843848228     -6.6843848228
    439.6221618652    240.0000000000     -4.0951123238     -4.0951123238
    439.6851196289    266.6666564941     -4.0970821381     -4.0970821381
    419.5801696777    266.6666564941     -5.3587198257     -5.3587198257
    419.4961853027    240.0000000000     -5.7117147446     -5.7117147446
    439.6851196289    266.6666564941     -4.0970821381     -4.0970821381
    439.7481079102    293.3333435059     -4.0556173325     -4.0556173325
    419.6641235352    293.3333435059     -5.7243700027     -5.7243700027
    419.5801696777    266.6666564941     -5.3587198257     -5.3587198257
    439.7481079102    293.3333435059     -4.0556173325     -4.0556173325
    439.8110656738    320.0000000000     -3.9939374924     -3.9939374924
    419.7481079102    320.0000000000     -6.4967575073     -6.4967575073
    419.6641235352    293.3333435059     -5.7243700027     -5.7243700027
    439.8110656738    320.0000000000     -3.9939374924     -3.9939374924
    439.8740539551    346.6666564941     -3.9405648708     -3.9405648708
    419.8320617676    346.6666564941     -7.2160921097     -7.2160921097
    419.7481079102    320.0000000000     -6.4967575073     -6.4967575073
    439.8740539551    346.6666564941     -3.9405648708     -3.9405648708
    439.9370422363    373.3333435059     -3.9210474491     -3.9210474491
    419.9160156250    373.3333435059     -7.5318470001     -7.5318470001
    419.8320617676    346.6666564941     -7.2160921097     -7.2160921097
    439.9370422363    373.3333435059     -3.9210474491     -3.9210474491
    440.0000000000    400.0000000000     -3.9210474491     -3.9210474491
    420.0000000000    400.0000000000     -7.5318470001     -7.5318470001
    419.9160156250    373.3333435059     -7.5318470001     -7.5318470001
    418.7405090332      0.0000000000     -6.9042830467     -6.9042830467
    418.8244628906     26.6666698456     -6.9042830467     -6.9042830467
    398.5305786133     26.6666698456     -7.2712221146     -7.2712221146
    398.4256286621      0.0000000000     -7.2712221146     -7.2712221146
    418.8244628906     26.6666698456     -6.9042830467     -6.9042830467
    418.9084167480     53.3333282471     -6.8219070435     -6.8219070435
    398.6355285645     53.3333282471     -5.4950079918     -5.4950079918
    398.5305786133     26.6666698456     -7.2712221146     -7.2712221146
    418.9084167480     53.3333282471     -6.8219070435     -6.8219070435
    418.9924011230     80.0000000000     -7.0211172104     -7.0211172104
    398.7405090332     80.0000000000     -5.4717421532     -5.4717421532
    398.6355285645     53.3333282471     -5.4950079918     -5.4950079918
    418.9924011230     80.0000000000     -7.0211172104     -7.0211172104
    419.0763549805    106.6666717529     -7.5795974731     -7.5795974731
    398.8454589844    106.6666717529     -8.2831344604     -8.2831344604
    398.7405090332     80.0000000000     -5.4717421532     -5.4717421532
    419.0763549805    106.6666717529     -7.5795974731     -7.5795974731
    419.1603393555    133.3333282471     -8.1863746643     -8.1863746643
    398.9504089355    133.3333282471    -12.3653640747    -12.3653640747
    398.8454589844    106.6666717529     -8.2831344604     -8.2831344604
    419.1603393555    133.3333282471     -8.1863746643     -8.1863746643
    419.2442932129    160.0000000000     -8.3354101181     -8.3354101181
    399.0553588867    160.0000000000    -14.8332023621    -14.8332023621
    398.9504089355    133.3333282471    -12.3653640747    -12.3653640747
    419.2442932129    160.0000000000     -8.3354101181     -8.3354101181
    419.3282775879    186.6666717529     -7.7568621635     -7.7568621635
    399.1603393555    186.6666717529    -13.9349222183    -13.9349222183
    399.0553588867    160.0000000000    -14.8332023621    -14.8332023621
    419.3282775879    186.6666717529     -7.7568621635     -7.7568621635
    419.4122314453    213.3333282471     -6.6843848228     -6.6843848228
    399.2652893066    213.3333282471    -10.4000272751    -10.4000272751
    399.1603393555    186.6666717529    -13.9349222183    -13.9349222183
    419.4122314453    213.3333282471     -6.6843848228     -6.6843848228
    419.4961853027    240.0000000000     -5.7117147446     -5.7117147446
    399.3702392578    240.0000000000     -6.6456475258     -6.6456475258
    399.2652893066    213.3333282471    -10.4000272751    -10.4000272751
    419.4961853027    240.0000000000     -5.7117147446     -5.7117147446
    419.5801696777    266.6666564941     -5.3587198257     -5.3587198257
    399.4752197266    266.6666564941     -4.8245449066     -4.8245449066
    399.3702392578    240.0000000000     -6.6456475258     -6.6456475258
    419.5801696777    266.6666564941     -5.3587198257     -5.3587198257
    419.6641235352    293.3333435059     -5.7243700027     -5.7243700027
    399.5801696777    293.3333435059     -5.5167274475     -5.5167274475
    399.4752197266    266.6666564941     -4.8245449066     -4.8245449066
    419.6641235352    293.3333435059     -5.7243700027     -5.7243700027
    419.7481079102    320.0000000000     -6.4967575073     -6.4967575073
    399.6851196289    320.0000000000     -7.8132848740     -7.8132848740
    399.5801696777    293.3333435059     -5.5167274475     -5.5167274475
    419.7481079102    320.0000000000     -6.4967575073     -6.4967575073
    419.8320617676    346.6666564941     -7.2160921097     -7.2160921097
    399.7900695801    346.6666564941    -10.2056827545    -10.2056827545
    399.6851196289    320.0000000000     -7.8132848740     -7.8132848740
    419.8320617676    346.6666564941     -7.2160921097     -7.2160921097
    419.9160156250    373.3333435059     -7.5318470001     -7.5318470001
    399.8950500488    373.3333435059    -11.4585323334    -11.4585323334
    399.7900695801    346.6666564941    -10.2056827545    -10.2056827545
    419.9160156250    373.3333435059     -7.5318470001     -7.5318470001
    420.0000000000    400.0000000000     -7.5318470001     -7.5318470001
    400.0000000000    400.0000000000    -11.4585323334    -11.4585323334
    399.8950500488    373.3333435059    -11.4585323334    -11.4585323334
    398.4256286621      0.0000000000     -7.2712221146     -7.2712221146
    398.5305786133     26.6666698456     -7.2712221146     -7.2712221146
    378.2366943359     26.6666698456     -6.6177496910     -6.6177496910
    378.1107482910      0.0000000000     -6.6177496910     -6.6177496910
    398.5305786133     26.6666698456     -7.2712221146     -7.2712221146
    398.6355285645     53.3333282471     -5.4950079918     -5.4950079918
    378.3626403809     53.3333282471     -1.7889077663     -1.7889077663
    378.2366943359     26.6666698456     -6.6177496910     -6.6177496910
    398.6355285645     53.3333282471     -5.4950079918     -5.4950079918
    398.7405090332     80.0000000000     -5.4717421532     -5.4717421532
    378.4885864258     80.0000000000      0.2168675065      0.2168675065
    378.3626403809     53.3333282471     -1.7889077663     -1.7889077663
    398.7405090332     80.0000000000     -5.4717421532     -5.4717421532
    398.8454589844    106.6666717529     -8.2831344604     -8.2831344604
    378.6145629883    106.6666717529     -3.1578001976     -3.1578001976
    378.4885864258     80.0000000000      0.2168675065      0.2168675065
    398.8454589844    106.6666717529     -8.2831344604     -8.2831344604
    398.9504089355    133.3333282471    -12.3653640747    -12.3653640747
    378.7405090332    133.3333282471     -9.7221927643     -9.7221927643
    378.6145629883    106.6666717529     -3.1578001976     -3.1578001976
    398.9504089355    133.3333282471    -12.3653640747    -12.3653640747
    399.0553588867    160.0000000000    -14.8332023621    -14.8332023621
    378.8664550781    160.0000000000    -14.9471473694    -14.9471473694
    378.7405090332    133.3333282471     -9.7221927643     -9.7221927643
    399.0553588867    160.0000000000    -14.8332023621    -14.8332023621
    399.1603393555    186.6666717529    -13.9349222183    -13.9349222183
    378.9924011230    186.6666717529    -15.8967304230    -15.8967304230
    378.8664550781    160.0000000000    -14.9471473694    -14.9471473694
    399.1603393555    186.6666717529    -13.9349222183    -13.9349222183
    399.2652893066    213.3333282471    -10.4000272751    -10.4000272751
    379.1183471680    213.3333282471    -13.1048793793    -13.1048793793
    378.9924011230    186.6666717529    -15.8967304230    -15.8967304230
    399.2652893066    213.3333282471    -10.4000272751    -10.4000272751
    399.3702392578    240.0000000000     -6.6456475258     -6.6456475258
    379.2442932129    240.0000000000     -9.2920398712     -9.2920398712
    379.1183471680    213.3333282471    -13.1048793793    -13.1048793793
    399.3702392578    240.0000000000     -6.6456475258     -6.6456475258
    399.4752197266    266.6666564941     -4.8245449066     -4.8245449066
    379.3702392578    266.6666564941     -6.8521575928     -6.8521575928
    379.2442932129    240.0000000000     -9.2920398712     -9.2920398712
    399.4752197266    266.6666564941     -4.8245449066     -4.8245449066
    399.5801696777    293.3333435059     -5.5167274475     -5.5167274475
    379.4961853027    293.3333435059     -6.5518598557     -6.5518598557
    379.3702392578    266.6666564941     -6.8521575928     -6.8521575928
    399.5801696777    293.3333435059     -5.5167274475     -5.5167274475
    399.6851196289    320.0000000000     -7.8132848740     -7.8132848740
    379.6221618652    320.0000000000     -7.7761220932     -7.7761220932
    379.4961853027    293.3333435059     -6.5518598557     -6.5518598557
    399.6851196289    320.0000000000     -7.8132848740     -7.8132848740
    399.7900695801    346.6666564941    -10.2056827545    -10.2056827545
    379.7481079102    346.6666564941     -9.3832597733     -9.3832597733
    379.6221618652    320.0000000000     -7.7761220932     -7.7761220932
    399.7900695801    346.6666564941    -10.2056827545    -10.2056827545
    399.8950500488    373.3333435059    -11.4585323334    -11.4585323334
    379.8740539551    373.3333435059    -10.5136899948    -10.5136899948
    379.7481079102    346.6666564941     -9.3832597733     -9.3832597733
    399.8950500488    373.3333435059    -11.4585323334    -11.4585323334
    400.0000000000    400.0000000000    -11.4585323334    -11.4585323334
    380.0000000000    400.0000000000    -10.5136899948    -10.5136899948
    379.8740539551    373.3333435059    -10.5136899948    -10.5136899948
    378.1107482910      0.0000000000     -6.6177496910     -6.6177496910
    378.2366943359     26.6666698456     -6.6177496910     -6.6177496910
    357.9428100586     26.6666698456    -11.4393949509    -11.4393949509
    357.7958679199      0.0000000000    -11.4393949509    -11.4393949509
    378.2366943359     26.6666698456     -6.6177496910     -6.6177496910
    378.3626403809     53.3333282471     -1.7889077663     -1.7889077663
    358.0897521973     53.3333282471     -7.4048223495     -7.4048223495
    357.9428100586     26.6666698456    -11.4393949509    -11.4393949509
    378.3626403809     53.3333282471     -1.7889077663     -1.7889077663
    378.4885864258     80.0000000000      0.2168675065      0.2168675065
    358.2366943359     80.0000000000     -4.1186299324     -4.1186299324
    358.0897521973     53.3333282471     -7.4048223495     -7.4048223495
    378.4885864258     80.0000000000      0.2168675065      0.2168675065
    378.6145629883    106.6666717529     -3.1578001976     -3.1578001976
    358.3836364746    106.6666717529     -3.3246374130     -3.3246374130
    358.2366943359     80.0000000000     -4.1186299324     -4.1186299324
    378.6145629883    106.6666717529     -3.1578001976     -3.1578001976
    378.7405090332    133.3333282471     -9.7221927643     -9.7221927643
    358.5305786133    133.3333282471     -4.6344499588     -4.6344499588
    358.3836364746    106.6666717529     -3.3246374130     -3.3246374130
    378.7405090332    133.3333282471     -9.7221927643     -9.7221927643
    378.8664550781    160.0000000000    -14.9471473694    -14.9471473694
    358.6775207520    160.0000000000     -6.7151422501     -6.7151422501
    358.5305786133    133.3333282471     -4.6344499588     -4.6344499588
    378.8664550781    160.0000000000    -14.9471473694    -14.9471473694
    378.9924011230    186.6666717529    -15.8967304230    -15.8967304230
    358.8244628906    186.6666717529     -8.6437768936     -8.6437768936
    358.6775207520    160.0000000000     -6.7151422501     -6.7151422501
    378.9924011230    186.6666717529    -15.8967304230    -15.8967304230
    379.1183471680    213.3333282471    -13.1048793793    -13.1048793793
    358.9714050293    213.3333282471    -10.1162424088    -10.1162424088
    358.8244628906    186.6666717529     -8.6437768936     -8.6437768936
    379.1183471680    213.3333282471    -13.1048793793    -13.1048793793
    379.2442932129    240.0000000000     -9.2920398712     -9.2920398712
    359.1183471680    240.0000000000    -10.9447402954    -10.9447402954
    358.9714050293    213.3333282471    -10.1162424088    -10.1162424088
    379.2442932129    240.0000000000     -9.2920398712     -9.2920398712
    379.3702392578    266.6666564941     -6.8521575928     -6.8521575928
    359.2652893066    266.6666564941    -10.8367099762    -10.8367099762
    359.1183471680    240.0000000000    -10.9447402954    -10.9447402954
    379.3702392578    266.6666564941     -6.8521575928     -6.8521575928
    379.4961853027    293.3333435059     -6.5518598557     -6.5518598557
    359.4122314453    293.3333435059     -9.6943826675     -9.6943826675
    359.2652893066    266.6666564941    -10.8367099762    -10.8367099762
    379.4961853027    293.3333435059     -6.5518598557     -6.5518598557
    379.6221618652    320.0000000000     -7.7761220932     -7.7761220932
    359.5591735840    320.0000000000     -7.8518500328     -7.8518500328
    359.4122314453    293.3333435059     -9.6943826675     -9.6943826675