 VARIABLES= "X","Y","Z","yita"  
ZONE N=                                        3000 E=                              750 F=FEPOINT, ET=QUADRILATERAL
    500.0000000000      0.0000000000      1.9120774269      1.9120774269
    500.0000000000     26.6666698456      1.9120774269      1.9120774269
    479.7061157227     26.6666698456      1.9120774269      1.9120774269
    479.6851196289      0.0000000000      1.9120774269      1.9120774269
    500.0000000000     26.6666698456      1.9120774269      1.9120774269
    500.0000000000     53.3333282471      1.9106999636      1.9106999636
    479.7271118164     53.3333282471      1.9106999636      1.9106999636
    479.7061157227     26.6666698456      1.9120774269      1.9120774269
    500.0000000000     53.3333282471      1.9106999636      1.9106999636
    500.0000000000     80.0000000000      1.9200100899      1.9200100899
    479.7481079102     80.0000000000      1.9200100899      1.9200100899
    479.7271118164     53.3333282471      1.9106999636      1.9106999636
    500.0000000000     80.0000000000      1.9200100899      1.9200100899
    500.0000000000    106.6666717529      1.9309825897      1.9309825897
    479.7691040039    106.6666717529      1.9309825897      1.9309825897
    479.7481079102     80.0000000000      1.9200100899      1.9200100899
    500.0000000000    106.6666717529      1.9309825897      1.9309825897
    500.0000000000    133.3333282471      1.9333925247      1.9333925247
    479.7900695801    133.3333282471      1.9333925247      1.9333925247
    479.7691040039    106.6666717529      1.9309825897      1.9309825897
    500.0000000000    133.3333282471      1.9333925247      1.9333925247
    500.0000000000    160.0000000000      1.9383075237      1.9383075237
    479.8110656738    160.0000000000      1.9383075237      1.9383075237
    479.7900695801    133.3333282471      1.9333925247      1.9333925247
    500.0000000000    160.0000000000      1.9383075237      1.9383075237
    500.0000000000    186.6666717529      1.9451349974      1.9451349974
    479.8320617676    186.6666717529      1.9451349974      1.9451349974
    479.8110656738    160.0000000000      1.9383075237      1.9383075237
    500.0000000000    186.6666717529      1.9451349974      1.9451349974
    500.0000000000    213.3333282471      1.9502499104      1.9502499104
    479.8530578613    213.3333282471      1.9502499104      1.9502499104
    479.8320617676    186.6666717529      1.9451349974      1.9451349974
    500.0000000000    213.3333282471      1.9502499104      1.9502499104
    500.0000000000    240.0000000000      1.9538149834      1.9538149834
    479.8740539551    240.0000000000      1.9538149834      1.9538149834
    479.8530578613    213.3333282471      1.9502499104      1.9502499104
    500.0000000000    240.0000000000      1.9538149834      1.9538149834
    500.0000000000    266.6666564941      1.9554824829      1.9554824829
    479.8950500488    266.6666564941      1.9554824829      1.9554824829
    479.8740539551    240.0000000000      1.9538149834      1.9538149834
    500.0000000000    266.6666564941      1.9554824829      1.9554824829
    500.0000000000    293.3333435059      1.9575250149      1.9575250149
    479.9160156250    293.3333435059      1.9575250149      1.9575250149
    479.8950500488    266.6666564941      1.9554824829      1.9554824829
    500.0000000000    293.3333435059      1.9575250149      1.9575250149
    500.0000000000    320.0000000000      1.9656875134      1.9656875134
    479.9370422363    320.0000000000      1.9656875134      1.9656875134
    479.9160156250    293.3333435059      1.9575250149      1.9575250149
    500.0000000000    320.0000000000      1.9656875134      1.9656875134
    500.0000000000    346.6666564941      1.9752475023      1.9752475023
    479.9580078125    346.6666564941      1.9752475023      1.9752475023
    479.9370422363    320.0000000000      1.9656875134      1.9656875134
    500.0000000000    346.6666564941      1.9752475023      1.9752475023
    500.0000000000    373.3333435059      1.9769175053      1.9769175053
    479.9790039062    373.3333435059      1.9769175053      1.9769175053
    479.9580078125    346.6666564941      1.9752475023      1.9752475023
    500.0000000000    373.3333435059      1.9769175053      1.9769175053
    500.0000000000    400.0000000000      1.9769175053      1.9769175053
    480.0000000000    400.0000000000      1.9769175053      1.9769175053
    479.9790039062    373.3333435059      1.9769175053      1.9769175053
    479.6851196289      0.0000000000      1.9120774269      1.9120774269
    479.7061157227     26.6666698456      1.9120774269      1.9120774269
    459.4122314453     26.6666698456      4.8056025505      4.8056025505
    459.3702392578      0.0000000000      4.8056025505      4.8056025505
    479.7061157227     26.6666698456      1.9120774269      1.9120774269
    479.7271118164     53.3333282471      1.9106999636      1.9106999636
    459.4542236328     53.3333282471      4.8026323318      4.8026323318
    459.4122314453     26.6666698456      4.8056025505      4.8056025505
    479.7271118164     53.3333282471      1.9106999636      1.9106999636
    479.7481079102     80.0000000000      1.9200100899      1.9200100899
    459.4961853027     80.0000000000      4.8052072525      4.8052072525
    459.4542236328     53.3333282471      4.8026323318      4.8026323318
    479.7481079102     80.0000000000      1.9200100899      1.9200100899
    479.7691040039    106.6666717529      1.9309825897      1.9309825897
    459.5381774902    106.6666717529      4.8111848831      4.8111848831
    459.4961853027     80.0000000000      4.8052072525      4.8052072525
    479.7691040039    106.6666717529      1.9309825897      1.9309825897
    479.7900695801    133.3333282471      1.9333925247      1.9333925247
    459.5801696777    133.3333282471      4.8130674362      4.8130674362
    459.5381774902    106.6666717529      4.8111848831      4.8111848831
    479.7900695801    133.3333282471      1.9333925247      1.9333925247
    479.8110656738    160.0000000000      1.9383075237      1.9383075237
    459.6221618652    160.0000000000      4.8039822578      4.8039822578
    459.5801696777    133.3333282471      4.8130674362      4.8130674362
    479.8110656738    160.0000000000      1.9383075237      1.9383075237
    479.8320617676    186.6666717529      1.9451349974      1.9451349974
    459.6641235352    186.6666717529      4.7822847366      4.7822847366
    459.6221618652    160.0000000000      4.8039822578      4.8039822578
    479.8320617676    186.6666717529      1.9451349974      1.9451349974
    479.8530578613    213.3333282471      1.9502499104      1.9502499104
    459.7061157227    213.3333282471      4.7546777725      4.7546777725
    459.6641235352    186.6666717529      4.7822847366      4.7822847366
    479.8530578613    213.3333282471      1.9502499104      1.9502499104
    479.8740539551    240.0000000000      1.9538149834      1.9538149834
    459.7481079102    240.0000000000      4.7329649925      4.7329649925
    459.7061157227    213.3333282471      4.7546777725      4.7546777725
    479.8740539551    240.0000000000      1.9538149834      1.9538149834
    479.8950500488    266.6666564941      1.9554824829      1.9554824829
    459.7900695801    266.6666564941      4.7249002457      4.7249002457
    459.7481079102    240.0000000000      4.7329649925      4.7329649925
    479.8950500488    266.6666564941      1.9554824829      1.9554824829
    479.9160156250    293.3333435059      1.9575250149      1.9575250149
    459.8320617676    293.3333435059      4.7304277420      4.7304277420
    459.7900695801    266.6666564941      4.7249002457      4.7249002457
    479.9160156250    293.3333435059      1.9575250149      1.9575250149
    479.9370422363    320.0000000000      1.9656875134      1.9656875134
    459.8740539551    320.0000000000      4.7431354523      4.7431354523
    459.8320617676    293.3333435059      4.7304277420      4.7304277420
    479.9370422363    320.0000000000      1.9656875134      1.9656875134
    479.9580078125    346.6666564941      1.9752475023      1.9752475023
    459.9160156250    346.6666564941      4.7528400421      4.7528400421
    459.8740539551    320.0000000000      4.7431354523      4.7431354523
    479.9580078125    346.6666564941      1.9752475023      1.9752475023
    479.9790039062    373.3333435059      1.9769175053      1.9769175053
    459.9580078125    373.3333435059      4.7500228882      4.7500228882
    459.9160156250    346.6666564941      4.7528400421      4.7528400421
    479.9790039062    373.3333435059      1.9769175053      1.9769175053
    480.0000000000    400.0000000000      1.9769175053      1.9769175053
    460.0000000000    400.0000000000      4.7500228882      4.7500228882
    459.9580078125    373.3333435059      4.7500228882      4.7500228882
    459.3702392578      0.0000000000      4.8056025505      4.8056025505
    459.4122314453     26.6666698456      4.8056025505      4.8056025505
    439.1183471680     26.6666698456      6.9974975586      6.9974975586
    439.0553588867      0.0000000000      6.9974975586      6.9974975586
    459.4122314453     26.6666698456      4.8056025505      4.8056025505
    459.4542236328     53.3333282471      4.8026323318      4.8026323318
    439.1813049316     53.3333282471      6.9875426292      6.9875426292
    439.1183471680     26.6666698456      6.9974975586      6.9974975586
    459.4542236328     53.3333282471      4.8026323318      4.8026323318
    459.4961853027     80.0000000000      4.8052072525      4.8052072525
    439.2442932129     80.0000000000      6.9720726013      6.9720726013
    439.1813049316     53.3333282471      6.9875426292      6.9875426292
    459.4961853027     80.0000000000      4.8052072525      4.8052072525
    459.5381774902    106.6666717529      4.8111848831      4.8111848831
    439.3072814941    106.6666717529      6.9609651566      6.9609651566
    439.2442932129     80.0000000000      6.9720726013      6.9720726013
    459.5381774902    106.6666717529      4.8111848831      4.8111848831
    459.5801696777    133.3333282471      4.8130674362      4.8130674362
    439.3702392578    133.3333282471      6.9709029198      6.9709029198
    439.3072814941    106.6666717529      6.9609651566      6.9609651566
    459.5801696777    133.3333282471      4.8130674362      4.8130674362
    459.6221618652    160.0000000000      4.8039822578      4.8039822578
    439.4332275391    160.0000000000      7.0098023415      7.0098023415
    439.3702392578    133.3333282471      6.9709029198      6.9709029198
    459.6221618652    160.0000000000      4.8039822578      4.8039822578
    459.6641235352    186.6666717529      4.7822847366      4.7822847366
    439.4961853027    186.6666717529      7.0659818649      7.0659818649
    439.4332275391    160.0000000000      7.0098023415      7.0098023415
    459.6641235352    186.6666717529      4.7822847366      4.7822847366
    459.7061157227    213.3333282471      4.7546777725      4.7546777725
    439.5591735840    213.3333282471      7.1130552292      7.1130552292
    439.4961853027    186.6666717529      7.0659818649      7.0659818649
    459.7061157227    213.3333282471      4.7546777725      4.7546777725
    459.7481079102    240.0000000000      4.7329649925      4.7329649925
    439.6221618652    240.0000000000      7.1286001205      7.1286001205
    439.5591735840    213.3333282471      7.1130552292      7.1130552292
    459.7481079102    240.0000000000      4.7329649925      4.7329649925
    459.7900695801    266.6666564941      4.7249002457      4.7249002457
    439.6851196289    266.6666564941      7.1089997292      7.1089997292
    439.6221618652    240.0000000000      7.1286001205      7.1286001205
    459.7900695801    266.6666564941      4.7249002457      4.7249002457
    459.8320617676    293.3333435059      4.7304277420      4.7304277420
    439.7481079102    293.3333435059      7.0674648285      7.0674648285
    439.6851196289    266.6666564941      7.1089997292      7.1089997292
    459.8320617676    293.3333435059      4.7304277420      4.7304277420
    459.8740539551    320.0000000000      4.7431354523      4.7431354523
    439.8110656738    320.0000000000      7.0226373672      7.0226373672
    439.7481079102    293.3333435059      7.0674648285      7.0674648285
    459.8740539551    320.0000000000      4.7431354523      4.7431354523
    459.9160156250    346.6666564941      4.7528400421      4.7528400421
    439.8740539551    346.6666564941      6.9913377762      6.9913377762
    439.8110656738    320.0000000000      7.0226373672      7.0226373672
    459.9160156250    346.6666564941      4.7528400421      4.7528400421
    459.9580078125    373.3333435059      4.7500228882      4.7500228882
    439.9370422363    373.3333435059      6.9781398773      6.9781398773
    439.8740539551    346.6666564941      6.9913377762      6.9913377762
    459.9580078125    373.3333435059      4.7500228882      4.7500228882
    460.0000000000    400.0000000000      4.7500228882      4.7500228882
    440.0000000000    400.0000000000      6.9781398773      6.9781398773
    439.9370422363    373.3333435059      6.9781398773      6.9781398773
    439.0553588867      0.0000000000      6.9974975586      6.9974975586
    439.1183471680     26.6666698456      6.9974975586      6.9974975586
    418.8244628906     26.6666698456      9.6629199982      9.6629199982
    418.7405090332      0.0000000000      9.6629199982      9.6629199982
    439.1183471680     26.6666698456      6.9974975586      6.9974975586
    439.1813049316     53.3333282471      6.9875426292      6.9875426292
    418.9084167480     53.3333282471      9.6831350327      9.6831350327
    418.8244628906     26.6666698456      9.6629199982      9.6629199982
    439.1813049316     53.3333282471      6.9875426292      6.9875426292
    439.2442932129     80.0000000000      6.9720726013      6.9720726013
    418.9924011230     80.0000000000      9.8790931702      9.8790931702
    418.9084167480     53.3333282471      9.6831350327      9.6831350327
    439.2442932129     80.0000000000      6.9720726013      6.9720726013
    439.3072814941    106.6666717529      6.9609651566      6.9609651566
    419.0763549805    106.6666717529     10.1775798798     10.1775798798
    418.9924011230     80.0000000000      9.8790931702      9.8790931702
    439.3072814941    106.6666717529      6.9609651566      6.9609651566
    439.3702392578    133.3333282471      6.9709029198      6.9709029198
    419.1603393555    133.3333282471     10.2884540558     10.2884540558
    419.0763549805    106.6666717529     10.1775798798     10.1775798798
    439.3702392578    133.3333282471      6.9709029198      6.9709029198
    439.4332275391    160.0000000000      7.0098023415      7.0098023415
    419.2442932129    160.0000000000      9.9340600967      9.9340600967
    419.1603393555    133.3333282471     10.2884540558     10.2884540558
    439.4332275391    160.0000000000      7.0098023415      7.0098023415
    439.4961853027    186.6666717529      7.0659818649      7.0659818649
    419.3282775879    186.6666717529      9.1177177429      9.1177177429
    419.2442932129    160.0000000000      9.9340600967      9.9340600967
    439.4961853027    186.6666717529      7.0659818649      7.0659818649
    439.5591735840    213.3333282471      7.1130552292      7.1130552292
    419.4122314453    213.3333282471      8.1867580414      8.1867580414
    419.3282775879    186.6666717529      9.1177177429      9.1177177429
    439.5591735840    213.3333282471      7.1130552292      7.1130552292
    439.6221618652    240.0000000000      7.1286001205      7.1286001205
    419.4961853027    240.0000000000      7.5957050323      7.5957050323
    419.4122314453    213.3333282471      8.1867580414      8.1867580414
    439.6221618652    240.0000000000      7.1286001205      7.1286001205
    439.6851196289    266.6666564941      7.1089997292      7.1089997292
    419.5801696777    266.6666564941      7.5856776237      7.5856776237
    419.4961853027    240.0000000000      7.5957050323      7.5957050323
    439.6851196289    266.6666564941      7.1089997292      7.1089997292
    439.7481079102    293.3333435059      7.0674648285      7.0674648285
    419.6641235352    293.3333435059      8.0700674057      8.0700674057
    419.5801696777    266.6666564941      7.5856776237      7.5856776237
    439.7481079102    293.3333435059      7.0674648285      7.0674648285
    439.8110656738    320.0000000000      7.0226373672      7.0226373672
    419.7481079102    320.0000000000      8.7447128296      8.7447128296
    419.6641235352    293.3333435059      8.0700674057      8.0700674057
    439.8110656738    320.0000000000      7.0226373672      7.0226373672
    439.8740539551    346.6666564941      6.9913377762      6.9913377762
    419.8320617676    346.6666564941      9.2501144409      9.2501144409
    419.7481079102    320.0000000000      8.7447128296      8.7447128296
    439.8740539551    346.6666564941      6.9913377762      6.9913377762
    439.9370422363    373.3333435059      6.9781398773      6.9781398773
    419.9160156250    373.3333435059      9.3512802124      9.3512802124
    419.8320617676    346.6666564941      9.2501144409      9.2501144409
    439.9370422363    373.3333435059      6.9781398773      6.9781398773
    440.0000000000    400.0000000000      6.9781398773      6.9781398773
    420.0000000000    400.0000000000      9.3512802124      9.3512802124
    419.9160156250    373.3333435059      9.3512802124      9.3512802124
    418.7405090332      0.0000000000      9.6629199982      9.6629199982
    418.8244628906     26.6666698456      9.6629199982      9.6629199982
    398.5305786133     26.6666698456      9.5192375183      9.5192375183
    398.4256286621      0.0000000000      9.5192375183      9.5192375183
    418.8244628906     26.6666698456      9.6629199982      9.6629199982
    418.9084167480     53.3333282471      9.6831350327      9.6831350327
    398.6355285645     53.3333282471      8.9214372635      8.9214372635
    398.5305786133     26.6666698456      9.5192375183      9.5192375183
    418.9084167480     53.3333282471      9.6831350327      9.6831350327
    418.9924011230     80.0000000000      9.8790931702      9.8790931702
    398.7405090332     80.0000000000      9.4158916473      9.4158916473
    398.6355285645     53.3333282471      8.9214372635      8.9214372635
    418.9924011230     80.0000000000      9.8790931702      9.8790931702
    419.0763549805    106.6666717529     10.1775798798     10.1775798798
    398.8454589844    106.6666717529     11.4999322891     11.4999322891
    398.7405090332     80.0000000000      9.4158916473      9.4158916473
    419.0763549805    106.6666717529     10.1775798798     10.1775798798
    419.1603393555    133.3333282471     10.2884540558     10.2884540558
    398.9504089355    133.3333282471     14.1032371521     14.1032371521
    398.8454589844    106.6666717529     11.4999322891     11.4999322891
    419.1603393555    133.3333282471     10.2884540558     10.2884540558
    419.2442932129    160.0000000000      9.9340600967      9.9340600967
    399.0553588867    160.0000000000     15.2025728226     15.2025728226
    398.9504089355    133.3333282471     14.1032371521     14.1032371521
    419.2442932129    160.0000000000      9.9340600967      9.9340600967
    419.3282775879    186.6666717529      9.1177177429      9.1177177429
    399.1603393555    186.6666717529     13.5556659698     13.5556659698
    399.0553588867    160.0000000000     15.2025728226     15.2025728226
    419.3282775879    186.6666717529      9.1177177429      9.1177177429
    419.4122314453    213.3333282471      8.1867580414      8.1867580414
    399.2652893066    213.3333282471      9.9635477066      9.9635477066
    399.1603393555    186.6666717529     13.5556659698     13.5556659698
    419.4122314453    213.3333282471      8.1867580414      8.1867580414
    419.4961853027    240.0000000000      7.5957050323      7.5957050323
    399.3702392578    240.0000000000      6.6843852997      6.6843852997
    399.2652893066    213.3333282471      9.9635477066      9.9635477066
    419.4961853027    240.0000000000      7.5957050323      7.5957050323
    419.5801696777    266.6666564941      7.5856776237      7.5856776237
    399.4752197266    266.6666564941      5.5930099487      5.5930099487
    399.3702392578    240.0000000000      6.6843852997      6.6843852997
    419.5801696777    266.6666564941      7.5856776237      7.5856776237
    419.6641235352    293.3333435059      8.0700674057      8.0700674057
    399.5801696777    293.3333435059      6.9198970795      6.9198970795
    399.4752197266    266.6666564941      5.5930099487      5.5930099487
    419.6641235352    293.3333435059      8.0700674057      8.0700674057
    419.7481079102    320.0000000000      8.7447128296      8.7447128296
    399.6851196289    320.0000000000      9.4475297928      9.4475297928
    399.5801696777    293.3333435059      6.9198970795      6.9198970795
    419.7481079102    320.0000000000      8.7447128296      8.7447128296
    419.8320617676    346.6666564941      9.2501144409      9.2501144409
    399.7900695801    346.6666564941     11.5651702881     11.5651702881
    399.6851196289    320.0000000000      9.4475297928      9.4475297928
    419.8320617676    346.6666564941      9.2501144409      9.2501144409
    419.9160156250    373.3333435059      9.3512802124      9.3512802124
    399.8950500488    373.3333435059     12.2700300217     12.2700300217
    399.7900695801    346.6666564941     11.5651702881     11.5651702881
    419.9160156250    373.3333435059      9.3512802124      9.3512802124
    420.0000000000    400.0000000000      9.3512802124      9.3512802124
    400.0000000000    400.0000000000     12.2700300217     12.2700300217
    399.8950500488    373.3333435059     12.2700300217     12.2700300217
    398.4256286621      0.0000000000      9.5192375183      9.5192375183
    398.5305786133     26.6666698456      9.5192375183      9.5192375183
    378.2366943359     26.6666698456      5.2038249969      5.2038249969
    378.1107482910      0.0000000000      5.2038249969      5.2038249969
    398.5305786133     26.6666698456      9.5192375183      9.5192375183
    398.6355285645     53.3333282471      8.9214372635      8.9214372635
    378.3626403809     53.3333282471      2.8903999329      2.8903999329
    378.2366943359     26.6666698456      5.2038249969      5.2038249969
    398.6355285645     53.3333282471      8.9214372635      8.9214372635
    398.7405090332     80.0000000000      9.4158916473      9.4158916473
    378.4885864258     80.0000000000      2.1971375942      2.1971375942
    378.3626403809     53.3333282471      2.8903999329      2.8903999329
    398.7405090332     80.0000000000      9.4158916473      9.4158916473
    398.8454589844    106.6666717529     11.4999322891     11.4999322891
    378.6145629883    106.6666717529      5.1571998596      5.1571998596
    378.4885864258     80.0000000000      2.1971375942      2.1971375942
    398.8454589844    106.6666717529     11.4999322891     11.4999322891
    398.9504089355    133.3333282471     14.1032371521     14.1032371521
    378.7405090332    133.3333282471     10.8974227905     10.8974227905
    378.6145629883    106.6666717529      5.1571998596      5.1571998596
    398.9504089355    133.3333282471     14.1032371521     14.1032371521
    399.0553588867    160.0000000000     15.2025728226     15.2025728226
    378.8664550781    160.0000000000     15.8020877838     15.8020877838
    378.7405090332    133.3333282471     10.8974227905     10.8974227905
    399.0553588867    160.0000000000     15.2025728226     15.2025728226
    399.1603393555    186.6666717529     13.5556659698     13.5556659698
    378.9924011230    186.6666717529     16.4632225037     16.4632225037
    378.8664550781    160.0000000000     15.8020877838     15.8020877838
    399.1603393555    186.6666717529     13.5556659698     13.5556659698
    399.2652893066    213.3333282471      9.9635477066      9.9635477066
    379.1183471680    213.3333282471     12.7551050186     12.7551050186
    378.9924011230    186.6666717529     16.4632225037     16.4632225037
    399.2652893066    213.3333282471      9.9635477066      9.9635477066
    399.3702392578    240.0000000000      6.6843852997      6.6843852997
    379.2442932129    240.0000000000      7.8360996246      7.8360996246
    379.1183471680    213.3333282471     12.7551050186     12.7551050186
    399.3702392578    240.0000000000      6.6843852997      6.6843852997
    399.4752197266    266.6666564941      5.5930099487      5.5930099487
    379.3702392578    266.6666564941      5.2077875137      5.2077875137
    379.2442932129    240.0000000000      7.8360996246      7.8360996246
    399.4752197266    266.6666564941      5.5930099487      5.5930099487
    399.5801696777    293.3333435059      6.9198970795      6.9198970795
    379.4961853027    293.3333435059      5.9189624786      5.9189624786
    379.3702392578    266.6666564941      5.2077875137      5.2077875137
    399.5801696777    293.3333435059      6.9198970795      6.9198970795
    399.6851196289    320.0000000000      9.4475297928      9.4475297928
    379.6221618652    320.0000000000      8.4173603058      8.4173603058
    379.4961853027    293.3333435059      5.9189624786      5.9189624786
    399.6851196289    320.0000000000      9.4475297928      9.4475297928
    399.7900695801    346.6666564941     11.5651702881     11.5651702881
    379.7481079102    346.6666564941     10.6014356613     10.6014356613
    379.6221618652    320.0000000000      8.4173603058      8.4173603058
    399.7900695801    346.6666564941     11.5651702881     11.5651702881
    399.8950500488    373.3333435059     12.2700300217     12.2700300217
    379.8740539551    373.3333435059     11.5055179596     11.5055179596
    379.7481079102    346.6666564941     10.6014356613     10.6014356613
    399.8950500488    373.3333435059     12.2700300217     12.2700300217
    400.0000000000    400.0000000000     12.2700300217     12.2700300217
    380.0000000000    400.0000000000     11.5055179596     11.5055179596
    379.8740539551    373.3333435059     11.5055179596     11.5055179596
    378.1107482910      0.0000000000      5.2038249969      5.2038249969
    378.2366943359     26.6666698456      5.2038249969      5.2038249969
    357.9428100586     26.6666698456      6.7335772514      6.7335772514
    357.7958679199      0.0000000000      6.7335772514      6.7335772514
    378.2366943359     26.6666698456      5.2038249969      5.2038249969
    378.3626403809     53.3333282471      2.8903999329      2.8903999329
    358.0897521973     53.3333282471      3.9753999710      3.9753999710
    357.9428100586     26.6666698456      6.7335772514      6.7335772514
    378.3626403809     53.3333282471      2.8903999329      2.8903999329
    378.4885864258     80.0000000000      2.1971375942      2.1971375942
    358.2366943359     80.0000000000      1.2302125692      1.2302125692
    358.0897521973     53.3333282471      3.9753999710      3.9753999710
    378.4885864258     80.0000000000      2.1971375942      2.1971375942
    378.6145629883    106.6666717529      5.1571998596      5.1571998596
    358.3836364746    106.6666717529      0.5900775194      0.5900775194
    358.2366943359     80.0000000000      1.2302125692      1.2302125692
    378.6145629883    106.6666717529      5.1571998596      5.1571998596
    378.7405090332    133.3333282471     10.8974227905     10.8974227905
    358.5305786133    133.3333282471      2.8750450611      2.8750450611
    358.3836364746    106.6666717529      0.5900775194      0.5900775194
    378.7405090332    133.3333282471     10.8974227905     10.8974227905
    378.8664550781    160.0000000000     15.8020877838     15.8020877838
    358.6775207520    160.0000000000      6.7410874367      6.7410874367
    358.5305786133    133.3333282471      2.8750450611      2.8750450611
    378.8664550781    160.0000000000     15.8020877838     15.8020877838
    378.9924011230    186.6666717529     16.4632225037     16.4632225037
    358.8244628906    186.6666717529      9.7247467041      9.7247467041
    358.6775207520    160.0000000000      6.7410874367      6.7410874367
    378.9924011230    186.6666717529     16.4632225037     16.4632225037
    379.1183471680    213.3333282471     12.7551050186     12.7551050186
    358.9714050293    213.3333282471     10.3178825378     10.3178825378
    358.8244628906    186.6666717529      9.7247467041      9.7247467041
    379.1183471680    213.3333282471     12.7551050186     12.7551050186
    379.2442932129    240.0000000000      7.8360996246      7.8360996246
    359.1183471680    240.0000000000      9.0842199326      9.0842199326
    358.9714050293    213.3333282471     10.3178825378     10.3178825378
    379.2442932129    240.0000000000      7.8360996246      7.8360996246
    379.3702392578    266.6666564941      5.2077875137      5.2077875137
    359.2652893066    266.6666564941      7.6964225769      7.6964225769
    359.1183471680    240.0000000000      9.0842199326      9.0842199326
    379.3702392578    266.6666564941      5.2077875137      5.2077875137
    379.4961853027    293.3333435059      5.9189624786      5.9189624786
    359.4122314453    293.3333435059      6.9978370667      6.9978370667
    359.2652893066    266.6666564941      7.6964225769      7.6964225769
    379.4961853027    293.3333435059      5.9189624786      5.9189624786
    379.6221618652    320.0000000000      8.4173603058      8.4173603058
    359.5591735840    320.0000000000      6.4755620956      6.4755620956
    359.4122314453    293.3333435059      6.9978370667      6.9978370667