 VARIABLES= "X","Y","Z","yita"  
ZONE N=                                        3000 E=                              750 F=FEPOINT, ET=QUADRILATERAL
    500.0000000000      0.0000000000      9.3928222656      9.3928222656
    500.0000000000     26.6666698456      9.3928222656      9.3928222656
    479.7061157227     26.6666698456      9.3928222656      9.3928222656
    479.6851196289      0.0000000000      9.3928222656      9.3928222656
    500.0000000000     26.6666698456      9.3928222656      9.3928222656
    500.0000000000     53.3333282471      9.3942251205      9.3942251205
    479.7271118164     53.3333282471      9.3942251205      9.3942251205
    479.7061157227     26.6666698456      9.3928222656      9.3928222656
    500.0000000000     53.3333282471      9.3942251205      9.3942251205
    500.0000000000     80.0000000000      9.3825302124      9.3825302124
    479.7481079102     80.0000000000      9.3825302124      9.3825302124
    479.7271118164     53.3333282471      9.3942251205      9.3942251205
    500.0000000000     80.0000000000      9.3825302124      9.3825302124
    500.0000000000    106.6666717529      9.3726377487      9.3726377487
    479.7691040039    106.6666717529      9.3726377487      9.3726377487
    479.7481079102     80.0000000000      9.3825302124      9.3825302124
    500.0000000000    106.6666717529      9.3726377487      9.3726377487
    500.0000000000    133.3333282471      9.3762750626      9.3762750626
    479.7900695801    133.3333282471      9.3762750626      9.3762750626
    479.7691040039    106.6666717529      9.3726377487      9.3726377487
    500.0000000000    133.3333282471      9.3762750626      9.3762750626
    500.0000000000    160.0000000000      9.3561344147      9.3561344147
    479.8110656738    160.0000000000      9.3561344147      9.3561344147
    479.7900695801    133.3333282471      9.3762750626      9.3762750626
    500.0000000000    160.0000000000      9.3561344147      9.3561344147
    500.0000000000    186.6666717529      9.3332328796      9.3332328796
    479.8320617676    186.6666717529      9.3332328796      9.3332328796
    479.8110656738    160.0000000000      9.3561344147      9.3561344147
    500.0000000000    186.6666717529      9.3332328796      9.3332328796
    500.0000000000    213.3333282471      9.3314352036      9.3314352036
    479.8530578613    213.3333282471      9.3314352036      9.3314352036
    479.8320617676    186.6666717529      9.3332328796      9.3332328796
    500.0000000000    213.3333282471      9.3314352036      9.3314352036
    500.0000000000    240.0000000000      9.3161621094      9.3161621094
    479.8740539551    240.0000000000      9.3161621094      9.3161621094
    479.8530578613    213.3333282471      9.3314352036      9.3314352036
    500.0000000000    240.0000000000      9.3161621094      9.3161621094
    500.0000000000    266.6666564941      9.2988748550      9.2988748550
    479.8950500488    266.6666564941      9.2988748550      9.2988748550
    479.8740539551    240.0000000000      9.3161621094      9.3161621094
    500.0000000000    266.6666564941      9.2988748550      9.2988748550
    500.0000000000    293.3333435059      9.2939500809      9.2939500809
    479.9160156250    293.3333435059      9.2939500809      9.2939500809
    479.8950500488    266.6666564941      9.2988748550      9.2988748550
    500.0000000000    293.3333435059      9.2939500809      9.2939500809
    500.0000000000    320.0000000000      9.2735652924      9.2735652924
    479.9370422363    320.0000000000      9.2735652924      9.2735652924
    479.9160156250    293.3333435059      9.2939500809      9.2939500809
    500.0000000000    320.0000000000      9.2735652924      9.2735652924
    500.0000000000    346.6666564941      9.2584924698      9.2584924698
    479.9580078125    346.6666564941      9.2584924698      9.2584924698
    479.9370422363    320.0000000000      9.2735652924      9.2735652924
    500.0000000000    346.6666564941      9.2584924698      9.2584924698
    500.0000000000    373.3333435059      9.2573871613      9.2573871613
    479.9790039062    373.3333435059      9.2573871613      9.2573871613
    479.9580078125    346.6666564941      9.2584924698      9.2584924698
    500.0000000000    373.3333435059      9.2573871613      9.2573871613
    500.0000000000    400.0000000000      9.2573871613      9.2573871613
    480.0000000000    400.0000000000      9.2573871613      9.2573871613
    479.9790039062    373.3333435059      9.2573871613      9.2573871613
    479.6851196289      0.0000000000      9.3928222656      9.3928222656
    479.7061157227     26.6666698456      9.3928222656      9.3928222656
    459.4122314453     26.6666698456      9.0607423782      9.0607423782
    459.3702392578      0.0000000000      9.0607423782      9.0607423782
    479.7061157227     26.6666698456      9.3928222656      9.3928222656
    479.7271118164     53.3333282471      9.3942251205      9.3942251205
    459.4542236328     53.3333282471      9.0633602142      9.0633602142
    459.4122314453     26.6666698456      9.0607423782      9.0607423782
    479.7271118164     53.3333282471      9.3942251205      9.3942251205
    479.7481079102     80.0000000000      9.3825302124      9.3825302124
    459.4961853027     80.0000000000      9.0581321716      9.0581321716
    459.4542236328     53.3333282471      9.0633602142      9.0633602142
    479.7481079102     80.0000000000      9.3825302124      9.3825302124
    479.7691040039    106.6666717529      9.3726377487      9.3726377487
    459.5381774902    106.6666717529      9.0408525467      9.0408525467
    459.4961853027     80.0000000000      9.0581321716      9.0581321716
    479.7691040039    106.6666717529      9.3726377487      9.3726377487
    479.7900695801    133.3333282471      9.3762750626      9.3762750626
    459.5801696777    133.3333282471      9.0141201019      9.0141201019
    459.5381774902    106.6666717529      9.0408525467      9.0408525467
    479.7900695801    133.3333282471      9.3762750626      9.3762750626
    479.8110656738    160.0000000000      9.3561344147      9.3561344147
    459.6221618652    160.0000000000      8.9868421555      8.9868421555
    459.5801696777    133.3333282471      9.0141201019      9.0141201019
    479.8110656738    160.0000000000      9.3561344147      9.3561344147
    479.8320617676    186.6666717529      9.3332328796      9.3332328796
    459.6641235352    186.6666717529      8.9714078903      8.9714078903
    459.6221618652    160.0000000000      8.9868421555      8.9868421555
    479.8320617676    186.6666717529      9.3332328796      9.3332328796
    479.8530578613    213.3333282471      9.3314352036      9.3314352036
    459.7061157227    213.3333282471      8.9739027023      8.9739027023
    459.6641235352    186.6666717529      8.9714078903      8.9714078903
    479.8530578613    213.3333282471      9.3314352036      9.3314352036
    479.8740539551    240.0000000000      9.3161621094      9.3161621094
    459.7481079102    240.0000000000      8.9883451462      8.9883451462
    459.7061157227    213.3333282471      8.9739027023      8.9739027023
    479.8740539551    240.0000000000      9.3161621094      9.3161621094
    479.8950500488    266.6666564941      9.2988748550      9.2988748550
    459.7900695801    266.6666564941      9.0046300888      9.0046300888
    459.7481079102    240.0000000000      8.9883451462      8.9883451462
    479.8950500488    266.6666564941      9.2988748550      9.2988748550
    479.9160156250    293.3333435059      9.2939500809      9.2939500809
    459.8320617676    293.3333435059      9.0148448944      9.0148448944
    459.7900695801    266.6666564941      9.0046300888      9.0046300888
    479.9160156250    293.3333435059      9.2939500809      9.2939500809
    479.9370422363    320.0000000000      9.2735652924      9.2735652924
    459.8740539551    320.0000000000      9.0156650543      9.0156650543
    459.8320617676    293.3333435059      9.0148448944      9.0148448944
    479.9370422363    320.0000000000      9.2735652924      9.2735652924
    479.9580078125    346.6666564941      9.2584924698      9.2584924698
    459.9160156250    346.6666564941      9.0105495453      9.0105495453
    459.8740539551    320.0000000000      9.0156650543      9.0156650543
    479.9580078125    346.6666564941      9.2584924698      9.2584924698
    479.9790039062    373.3333435059      9.2573871613      9.2573871613
    459.9580078125    373.3333435059      8.9973096848      8.9973096848
    459.9160156250    346.6666564941      9.0105495453      9.0105495453
    479.9790039062    373.3333435059      9.2573871613      9.2573871613
    480.0000000000    400.0000000000      9.2573871613      9.2573871613
    460.0000000000    400.0000000000      8.9973096848      8.9973096848
    459.9580078125    373.3333435059      8.9973096848      8.9973096848
    459.3702392578      0.0000000000      9.0607423782      9.0607423782
    459.4122314453     26.6666698456      9.0607423782      9.0607423782
    439.1183471680     26.6666698456      7.6825318336      7.6825318336
    439.0553588867      0.0000000000      7.6825318336      7.6825318336
    459.4122314453     26.6666698456      9.0607423782      9.0607423782
    459.4542236328     53.3333282471      9.0633602142      9.0633602142
    439.1813049316     53.3333282471      7.6686925888      7.6686925888
    439.1183471680     26.6666698456      7.6825318336      7.6825318336
    459.4542236328     53.3333282471      9.0633602142      9.0633602142
    459.4961853027     80.0000000000      9.0581321716      9.0581321716
    439.2442932129     80.0000000000      7.6827926636      7.6827926636
    439.1813049316     53.3333282471      7.6686925888      7.6686925888
    459.4961853027     80.0000000000      9.0581321716      9.0581321716
    459.5381774902    106.6666717529      9.0408525467      9.0408525467
    439.3072814941    106.6666717529      7.7491922379      7.7491922379
    439.2442932129     80.0000000000      7.6827926636      7.6827926636
    459.5381774902    106.6666717529      9.0408525467      9.0408525467
    459.5801696777    133.3333282471      9.0141201019      9.0141201019
    439.3702392578    133.3333282471      7.8535900116      7.8535900116
    439.3072814941    106.6666717529      7.7491922379      7.7491922379
    459.5801696777    133.3333282471      9.0141201019      9.0141201019
    459.6221618652    160.0000000000      8.9868421555      8.9868421555
    439.4332275391    160.0000000000      7.9458427429      7.9458427429
    439.3702392578    133.3333282471      7.8535900116      7.8535900116
    459.6221618652    160.0000000000      8.9868421555      8.9868421555
    459.6641235352    186.6666717529      8.9714078903      8.9714078903
    439.4961853027    186.6666717529      7.9765930176      7.9765930176
    439.4332275391    160.0000000000      7.9458427429      7.9458427429
    459.6641235352    186.6666717529      8.9714078903      8.9714078903
    459.7061157227    213.3333282471      8.9739027023      8.9739027023
    439.5591735840    213.3333282471      7.9359750748      7.9359750748
    439.4961853027    186.6666717529      7.9765930176      7.9765930176
    459.7061157227    213.3333282471      8.9739027023      8.9739027023
    459.7481079102    240.0000000000      8.9883451462      8.9883451462
    439.6221618652    240.0000000000      7.8624725342      7.8624725342
    439.5591735840    213.3333282471      7.9359750748      7.9359750748
    459.7481079102    240.0000000000      8.9883451462      8.9883451462
    459.7900695801    266.6666564941      9.0046300888      9.0046300888
    439.6851196289    266.6666564941      7.8114948273      7.8114948273
    439.6221618652    240.0000000000      7.8624725342      7.8624725342
    459.7900695801    266.6666564941      9.0046300888      9.0046300888
    459.8320617676    293.3333435059      9.0148448944      9.0148448944
    439.7481079102    293.3333435059      7.8111252785      7.8111252785
    439.6851196289    266.6666564941      7.8114948273      7.8114948273
    459.8320617676    293.3333435059      9.0148448944      9.0148448944
    459.8740539551    320.0000000000      9.0156650543      9.0156650543
    439.8110656738    320.0000000000      7.8476977348      7.8476977348
    439.7481079102    293.3333435059      7.8111252785      7.8111252785
    459.8740539551    320.0000000000      9.0156650543      9.0156650543
    459.9160156250    346.6666564941      9.0105495453      9.0105495453
    439.8740539551    346.6666564941      7.8902149200      7.8902149200
    439.8110656738    320.0000000000      7.8476977348      7.8476977348
    459.9160156250    346.6666564941      9.0105495453      9.0105495453
    459.9580078125    373.3333435059      8.9973096848      8.9973096848
    439.9370422363    373.3333435059      7.9033927917      7.9033927917
    439.8740539551    346.6666564941      7.8902149200      7.8902149200
    459.9580078125    373.3333435059      8.9973096848      8.9973096848
    460.0000000000    400.0000000000      8.9973096848      8.9973096848
    440.0000000000    400.0000000000      7.9033927917      7.9033927917
    439.9370422363    373.3333435059      7.9033927917      7.9033927917
    439.0553588867      0.0000000000      7.6825318336      7.6825318336
    439.1183471680     26.6666698456      7.6825318336      7.6825318336
    418.8244628906     26.6666698456      7.7608003616      7.7608003616
    418.7405090332      0.0000000000      7.7608003616      7.7608003616
    439.1183471680     26.6666698456      7.6825318336      7.6825318336
    439.1813049316     53.3333282471      7.6686925888      7.6686925888
    418.9084167480     53.3333282471      7.9588203430      7.9588203430
    418.8244628906     26.6666698456      7.7608003616      7.7608003616
    439.1813049316     53.3333282471      7.6686925888      7.6686925888
    439.2442932129     80.0000000000      7.6827926636      7.6827926636
    418.9924011230     80.0000000000      7.8154354095      7.8154354095
    418.9084167480     53.3333282471      7.9588203430      7.9588203430
    439.2442932129     80.0000000000      7.6827926636      7.6827926636
    439.3072814941    106.6666717529      7.7491922379      7.7491922379
    419.0763549805    106.6666717529      7.0384526253      7.0384526253
    418.9924011230     80.0000000000      7.8154354095      7.8154354095
    439.3072814941    106.6666717529      7.7491922379      7.7491922379
    439.3702392578    133.3333282471      7.8535900116      7.8535900116
    419.1603393555    133.3333282471      5.7677898407      5.7677898407
    419.0763549805    106.6666717529      7.0384526253      7.0384526253
    439.3702392578    133.3333282471      7.8535900116      7.8535900116
    439.4332275391    160.0000000000      7.9458427429      7.9458427429
    419.2442932129    160.0000000000      4.5651273727      4.5651273727
    419.1603393555    133.3333282471      5.7677898407      5.7677898407
    439.4332275391    160.0000000000      7.9458427429      7.9458427429
    439.4961853027    186.6666717529      7.9765930176      7.9765930176
    419.3282775879    186.6666717529      4.0339899063      4.0339899063
    419.2442932129    160.0000000000      4.5651273727      4.5651273727
    439.4961853027    186.6666717529      7.9765930176      7.9765930176
    439.5591735840    213.3333282471      7.9359750748      7.9359750748
    419.4122314453    213.3333282471      4.3736276627      4.3736276627
    419.3282775879    186.6666717529      4.0339899063      4.0339899063
    439.5591735840    213.3333282471      7.9359750748      7.9359750748
    439.6221618652    240.0000000000      7.8624725342      7.8624725342
    419.4961853027    240.0000000000      5.2252249718      5.2252249718
    419.4122314453    213.3333282471      4.3736276627      4.3736276627
    439.6221618652    240.0000000000      7.8624725342      7.8624725342
    439.6851196289    266.6666564941      7.8114948273      7.8114948273
    419.5801696777    266.6666564941      5.9765276909      5.9765276909
    419.4961853027    240.0000000000      5.2252249718      5.2252249718
    439.6851196289    266.6666564941      7.8114948273      7.8114948273
    439.7481079102    293.3333435059      7.8111252785      7.8111252785
    419.6641235352    293.3333435059      6.2444648743      6.2444648743
    419.5801696777    266.6666564941      5.9765276909      5.9765276909
    439.7481079102    293.3333435059      7.8111252785      7.8111252785
    439.8110656738    320.0000000000      7.8476977348      7.8476977348
    419.7481079102    320.0000000000      6.0743575096      6.0743575096
    419.6641235352    293.3333435059      6.2444648743      6.2444648743
    439.8110656738    320.0000000000      7.8476977348      7.8476977348
    439.8740539551    346.6666564941      7.8902149200      7.8902149200
    419.8320617676    346.6666564941      5.7338223457      5.7338223457
    419.7481079102    320.0000000000      6.0743575096      6.0743575096
    439.8740539551    346.6666564941      7.8902149200      7.8902149200
    439.9370422363    373.3333435059      7.9033927917      7.9033927917
    419.9160156250    373.3333435059      5.4320526123      5.4320526123
    419.8320617676    346.6666564941      5.7338223457      5.7338223457
    439.9370422363    373.3333435059      7.9033927917      7.9033927917
    440.0000000000    400.0000000000      7.9033927917      7.9033927917
    420.0000000000    400.0000000000      5.4320526123      5.4320526123
    419.9160156250    373.3333435059      5.4320526123      5.4320526123
    418.7405090332      0.0000000000      7.7608003616      7.7608003616
    418.8244628906     26.6666698456      7.7608003616      7.7608003616
    398.5305786133     26.6666698456      8.1685152054      8.1685152054
    398.4256286621      0.0000000000      8.1685152054      8.1685152054
    418.8244628906     26.6666698456      7.7608003616      7.7608003616
    418.9084167480     53.3333282471      7.9588203430      7.9588203430
    398.6355285645     53.3333282471      8.6789550781      8.6789550781
    398.5305786133     26.6666698456      8.1685152054      8.1685152054
    418.9084167480     53.3333282471      7.9588203430      7.9588203430
    418.9924011230     80.0000000000      7.8154354095      7.8154354095
    398.7405090332     80.0000000000      8.7013854980      8.7013854980
    398.6355285645     53.3333282471      8.6789550781      8.6789550781
    418.9924011230     80.0000000000      7.8154354095      7.8154354095
    419.0763549805    106.6666717529      7.0384526253      7.0384526253
    398.8454589844    106.6666717529      7.6146926880      7.6146926880
    398.7405090332     80.0000000000      8.7013854980      8.7013854980
    419.0763549805    106.6666717529      7.0384526253      7.0384526253
    419.1603393555    133.3333282471      5.7677898407      5.7677898407
    398.9504089355    133.3333282471      5.3528451920      5.3528451920
    398.8454589844    106.6666717529      7.6146926880      7.6146926880
    419.1603393555    133.3333282471      5.7677898407      5.7677898407
    419.2442932129    160.0000000000      4.5651273727      4.5651273727
    399.0553588867    160.0000000000      2.5554175377      2.5554175377
    398.9504089355    133.3333282471      5.3528451920      5.3528451920
    419.2442932129    160.0000000000      4.5651273727      4.5651273727
    419.3282775879    186.6666717529      4.0339899063      4.0339899063
    399.1603393555    186.6666717529      0.3108325005      0.3108325005
    399.0553588867    160.0000000000      2.5554175377      2.5554175377
    419.3282775879    186.6666717529      4.0339899063      4.0339899063
    419.4122314453    213.3333282471      4.3736276627      4.3736276627
    399.2652893066    213.3333282471     -0.4605224729     -0.4605224729
    399.1603393555    186.6666717529      0.3108325005      0.3108325005
    419.4122314453    213.3333282471      4.3736276627      4.3736276627
    419.4961853027    240.0000000000      5.2252249718      5.2252249718
    399.3702392578    240.0000000000      0.3369774818      0.3369774818
    399.2652893066    213.3333282471     -0.4605224729     -0.4605224729
    419.4961853027    240.0000000000      5.2252249718      5.2252249718
    419.5801696777    266.6666564941      5.9765276909      5.9765276909
    399.4752197266    266.6666564941      1.9351148605      1.9351148605
    399.3702392578    240.0000000000      0.3369774818      0.3369774818
    419.5801696777    266.6666564941      5.9765276909      5.9765276909
    419.6641235352    293.3333435059      6.2444648743      6.2444648743
    399.5801696777    293.3333435059      3.3754723072      3.3754723072
    399.4752197266    266.6666564941      1.9351148605      1.9351148605
    419.6641235352    293.3333435059      6.2444648743      6.2444648743
    419.7481079102    320.0000000000      6.0743575096      6.0743575096
    399.6851196289    320.0000000000      4.1364274025      4.1364274025
    399.5801696777    293.3333435059      3.3754723072      3.3754723072
    419.7481079102    320.0000000000      6.0743575096      6.0743575096
    419.8320617676    346.6666564941      5.7338223457      5.7338223457
    399.7900695801    346.6666564941      4.1642751694      4.1642751694
    399.6851196289    320.0000000000      4.1364274025      4.1364274025
    419.8320617676    346.6666564941      5.7338223457      5.7338223457
    419.9160156250    373.3333435059      5.4320526123      5.4320526123
    399.8950500488    373.3333435059      3.6254451275      3.6254451275
    399.7900695801    346.6666564941      4.1642751694      4.1642751694
    419.9160156250    373.3333435059      5.4320526123      5.4320526123
    420.0000000000    400.0000000000      5.4320526123      5.4320526123
    400.0000000000    400.0000000000      3.6254451275      3.6254451275
    399.8950500488    373.3333435059      3.6254451275      3.6254451275
    398.4256286621      0.0000000000      8.1685152054      8.1685152054
    398.5305786133     26.6666698456      8.1685152054      8.1685152054
    378.2366943359     26.6666698456      0.7844974995      0.7844974995
    378.1107482910      0.0000000000      0.7844974995      0.7844974995
    398.5305786133     26.6666698456      8.1685152054      8.1685152054
    398.6355285645     53.3333282471      8.6789550781      8.6789550781
    378.3626403809     53.3333282471      0.2013652325      0.2013652325
    378.2366943359     26.6666698456      0.7844974995      0.7844974995
    398.6355285645     53.3333282471      8.6789550781      8.6789550781
    398.7405090332     80.0000000000      8.7013854980      8.7013854980
    378.4885864258     80.0000000000      0.6074478626      0.6074478626
    378.3626403809     53.3333282471      0.2013652325      0.2013652325
    398.7405090332     80.0000000000      8.7013854980      8.7013854980
    398.8454589844    106.6666717529      7.6146926880      7.6146926880
    378.6145629883    106.6666717529      2.6463675499      2.6463675499
    378.4885864258     80.0000000000      0.6074478626      0.6074478626
    398.8454589844    106.6666717529      7.6146926880      7.6146926880
    398.9504089355    133.3333282471      5.3528451920      5.3528451920
    378.7405090332    133.3333282471      5.2323751450      5.2323751450
    378.6145629883    106.6666717529      2.6463675499      2.6463675499
    398.9504089355    133.3333282471      5.3528451920      5.3528451920
    399.0553588867    160.0000000000      2.5554175377      2.5554175377
    378.8664550781    160.0000000000      6.0823421478      6.0823421478
    378.7405090332    133.3333282471      5.2323751450      5.2323751450
    399.0553588867    160.0000000000      2.5554175377      2.5554175377
    399.1603393555    186.6666717529      0.3108325005      0.3108325005
    378.9924011230    186.6666717529      3.8218672276      3.8218672276
    378.8664550781    160.0000000000      6.0823421478      6.0823421478
    399.1603393555    186.6666717529      0.3108325005      0.3108325005
    399.2652893066    213.3333282471     -0.4605224729     -0.4605224729
    379.1183471680    213.3333282471     -0.4590300918     -0.4590300918
    378.9924011230    186.6666717529      3.8218672276      3.8218672276
    399.2652893066    213.3333282471     -0.4605224729     -0.4605224729
    399.3702392578    240.0000000000      0.3369774818      0.3369774818
    379.2442932129    240.0000000000     -3.9238400459     -3.9238400459
    379.1183471680    213.3333282471     -0.4590300918     -0.4590300918
    399.3702392578    240.0000000000      0.3369774818      0.3369774818
    399.4752197266    266.6666564941      1.9351148605      1.9351148605
    379.3702392578    266.6666564941     -4.3607025146     -4.3607025146
    379.2442932129    240.0000000000     -3.9238400459     -3.9238400459
    399.4752197266    266.6666564941      1.9351148605      1.9351148605
    399.5801696777    293.3333435059      3.3754723072      3.3754723072
    379.4961853027    293.3333435059     -1.8784074783     -1.8784074783
    379.3702392578    266.6666564941     -4.3607025146     -4.3607025146
    399.5801696777    293.3333435059      3.3754723072      3.3754723072
    399.6851196289    320.0000000000      4.1364274025      4.1364274025
    379.6221618652    320.0000000000      1.5191550255      1.5191550255
    379.4961853027    293.3333435059     -1.8784074783     -1.8784074783
    399.6851196289    320.0000000000      4.1364274025      4.1364274025
    399.7900695801    346.6666564941      4.1642751694      4.1642751694
    379.7481079102    346.6666564941      3.7237126827      3.7237126827
    379.6221618652    320.0000000000      1.5191550255      1.5191550255
    399.7900695801    346.6666564941      4.1642751694      4.1642751694
    399.8950500488    373.3333435059      3.6254451275      3.6254451275
    379.8740539551    373.3333435059      3.8730773926      3.8730773926
    379.7481079102    346.6666564941      3.7237126827      3.7237126827
    399.8950500488    373.3333435059      3.6254451275      3.6254451275
    400.0000000000    400.0000000000      3.6254451275      3.6254451275
    380.0000000000    400.0000000000      3.8730773926      3.8730773926
    379.8740539551    373.3333435059      3.8730773926      3.8730773926
    378.1107482910      0.0000000000      0.7844974995      0.7844974995
    378.2366943359     26.6666698456      0.7844974995      0.7844974995
    357.9428100586     26.6666698456     -7.8117275238     -7.8117275238
    357.7958679199      0.0000000000     -7.8117275238     -7.8117275238
    378.2366943359     26.6666698456      0.7844974995      0.7844974995
    378.3626403809     53.3333282471      0.2013652325      0.2013652325
    358.0897521973     53.3333282471    -11.3400554657    -11.3400554657
    357.9428100586     26.6666698456     -7.8117275238     -7.8117275238
    378.3626403809     53.3333282471      0.2013652325      0.2013652325
    378.4885864258     80.0000000000      0.6074478626      0.6074478626
    358.2366943359     80.0000000000    -12.6181106567    -12.6181106567
    358.0897521973     53.3333282471    -11.3400554657    -11.3400554657
    378.4885864258     80.0000000000      0.6074478626      0.6074478626
    378.6145629883    106.6666717529      2.6463675499      2.6463675499
    358.3836364746    106.6666717529     -8.7960224152     -8.7960224152
    358.2366943359     80.0000000000    -12.6181106567    -12.6181106567
    378.6145629883    106.6666717529      2.6463675499      2.6463675499
    378.7405090332    133.3333282471      5.2323751450      5.2323751450
    358.5305786133    133.3333282471     -1.2160099745     -1.2160099745
    358.3836364746    106.6666717529     -8.7960224152     -8.7960224152
    378.7405090332    133.3333282471      5.2323751450      5.2323751450
    378.8664550781    160.0000000000      6.0823421478      6.0823421478
    358.6775207520    160.0000000000      5.1796822548      5.1796822548
    358.5305786133    133.3333282471     -1.2160099745     -1.2160099745
    378.8664550781    160.0000000000      6.0823421478      6.0823421478
    378.9924011230    186.6666717529      3.8218672276      3.8218672276
    358.8244628906    186.6666717529      5.9532899857      5.9532899857
    358.6775207520    160.0000000000      5.1796822548      5.1796822548
    378.9924011230    186.6666717529      3.8218672276      3.8218672276
    379.1183471680    213.3333282471     -0.4590300918     -0.4590300918
    358.9714050293    213.3333282471      1.0312824249      1.0312824249
    358.8244628906    186.6666717529      5.9532899857      5.9532899857
    379.1183471680    213.3333282471     -0.4590300918     -0.4590300918
    379.2442932129    240.0000000000     -3.9238400459     -3.9238400459
    359.1183471680    240.0000000000     -5.2189550400     -5.2189550400
    358.9714050293    213.3333282471      1.0312824249      1.0312824249
    379.2442932129    240.0000000000     -3.9238400459     -3.9238400459
    379.3702392578    266.6666564941     -4.3607025146     -4.3607025146
    359.2652893066    266.6666564941     -7.9281001091     -7.9281001091
    359.1183471680    240.0000000000     -5.2189550400     -5.2189550400
    379.3702392578    266.6666564941     -4.3607025146     -4.3607025146
    379.4961853027    293.3333435059     -1.8784074783     -1.8784074783
    359.4122314453    293.3333435059     -5.9257626534     -5.9257626534
    359.2652893066    266.6666564941     -7.9281001091     -7.9281001091
    379.4961853027    293.3333435059     -1.8784074783     -1.8784074783
    379.6221618652    320.0000000000      1.5191550255      1.5191550255
    359.5591735840    320.0000000000     -1.9918200970     -1.9918200970
    359.4122314453    293.3333435059     -5.9257626534     -5.9257626534