 VARIABLES= "X","Y","Z","yita"  
ZONE N=                                        3000 E=                              750 F=FEPOINT, ET=QUADRILATERAL
    500.0000000000      0.0000000000     -8.2204599380     -8.2204599380
    500.0000000000     26.6666698456     -8.2204599380     -8.2204599380
    479.7061157227     26.6666698456     -8.2204599380     -8.2204599380
    479.6851196289      0.0000000000     -8.2204599380     -8.2204599380
    500.0000000000     26.6666698456     -8.2204599380     -8.2204599380
    500.0000000000     53.3333282471     -8.2206802368     -8.2206802368
    479.7271118164     53.3333282471     -8.2206802368     -8.2206802368
    479.7061157227     26.6666698456     -8.2204599380     -8.2204599380
    500.0000000000     53.3333282471     -8.2206802368     -8.2206802368
    500.0000000000     80.0000000000     -8.2136878967     -8.2136878967
    479.7481079102     80.0000000000     -8.2136878967     -8.2136878967
    479.7271118164     53.3333282471     -8.2206802368     -8.2206802368
    500.0000000000     80.0000000000     -8.2136878967     -8.2136878967
    500.0000000000    106.6666717529     -8.2084980011     -8.2084980011
    479.7691040039    106.6666717529     -8.2084980011     -8.2084980011
    479.7481079102     80.0000000000     -8.2136878967     -8.2136878967
    500.0000000000    106.6666717529     -8.2084980011     -8.2084980011
    500.0000000000    133.3333282471     -8.2112369537     -8.2112369537
    479.7900695801    133.3333282471     -8.2112369537     -8.2112369537
    479.7691040039    106.6666717529     -8.2084980011     -8.2084980011
    500.0000000000    133.3333282471     -8.2112369537     -8.2112369537
    500.0000000000    160.0000000000     -8.1934776306     -8.1934776306
    479.8110656738    160.0000000000     -8.1934776306     -8.1934776306
    479.7900695801    133.3333282471     -8.2112369537     -8.2112369537
    500.0000000000    160.0000000000     -8.1934776306     -8.1934776306
    500.0000000000    186.6666717529     -8.1741123199     -8.1741123199
    479.8320617676    186.6666717529     -8.1741123199     -8.1741123199
    479.8110656738    160.0000000000     -8.1934776306     -8.1934776306
    500.0000000000    186.6666717529     -8.1741123199     -8.1741123199
    500.0000000000    213.3333282471     -8.1729545593     -8.1729545593
    479.8530578613    213.3333282471     -8.1729545593     -8.1729545593
    479.8320617676    186.6666717529     -8.1741123199     -8.1741123199
    500.0000000000    213.3333282471     -8.1729545593     -8.1729545593
    500.0000000000    240.0000000000     -8.1558647156     -8.1558647156
    479.8740539551    240.0000000000     -8.1558647156     -8.1558647156
    479.8530578613    213.3333282471     -8.1729545593     -8.1729545593
    500.0000000000    240.0000000000     -8.1558647156     -8.1558647156
    500.0000000000    266.6666564941     -8.1360073090     -8.1360073090
    479.8950500488    266.6666564941     -8.1360073090     -8.1360073090
    479.8740539551    240.0000000000     -8.1558647156     -8.1558647156
    500.0000000000    266.6666564941     -8.1360073090     -8.1360073090
    500.0000000000    293.3333435059     -8.1300106049     -8.1300106049
    479.9160156250    293.3333435059     -8.1300106049     -8.1300106049
    479.8950500488    266.6666564941     -8.1360073090     -8.1360073090
    500.0000000000    293.3333435059     -8.1300106049     -8.1300106049
    500.0000000000    320.0000000000     -8.1059169769     -8.1059169769
    479.9370422363    320.0000000000     -8.1059169769     -8.1059169769
    479.9160156250    293.3333435059     -8.1300106049     -8.1300106049
    500.0000000000    320.0000000000     -8.1059169769     -8.1059169769
    500.0000000000    346.6666564941     -8.0874824524     -8.0874824524
    479.9580078125    346.6666564941     -8.0874824524     -8.0874824524
    479.9370422363    320.0000000000     -8.1059169769     -8.1059169769
    500.0000000000    346.6666564941     -8.0874824524     -8.0874824524
    500.0000000000    373.3333435059     -8.0856094360     -8.0856094360
    479.9790039062    373.3333435059     -8.0856094360     -8.0856094360
    479.9580078125    346.6666564941     -8.0874824524     -8.0874824524
    500.0000000000    373.3333435059     -8.0856094360     -8.0856094360
    500.0000000000    400.0000000000     -8.0856094360     -8.0856094360
    480.0000000000    400.0000000000     -8.0856094360     -8.0856094360
    479.9790039062    373.3333435059     -8.0856094360     -8.0856094360
    479.6851196289      0.0000000000     -8.2204599380     -8.2204599380
    479.7061157227     26.6666698456     -8.2204599380     -8.2204599380
    459.4122314453     26.6666698456     -9.1458549500     -9.1458549500
    459.3702392578      0.0000000000     -9.1458549500     -9.1458549500
    479.7061157227     26.6666698456     -8.2204599380     -8.2204599380
    479.7271118164     53.3333282471     -8.2206802368     -8.2206802368
    459.4542236328     53.3333282471     -9.1459903717     -9.1459903717
    459.4122314453     26.6666698456     -9.1458549500     -9.1458549500
    479.7271118164     53.3333282471     -8.2206802368     -8.2206802368
    479.7481079102     80.0000000000     -8.2136878967     -8.2136878967
    459.4961853027     80.0000000000     -9.1416053772     -9.1416053772
    459.4542236328     53.3333282471     -9.1459903717     -9.1459903717
    479.7481079102     80.0000000000     -8.2136878967     -8.2136878967
    479.7691040039    106.6666717529     -8.2084980011     -8.2084980011
    459.5381774902    106.6666717529     -9.1296310425     -9.1296310425
    459.4961853027     80.0000000000     -9.1416053772     -9.1416053772
    479.7691040039    106.6666717529     -8.2084980011     -8.2084980011
    479.7900695801    133.3333282471     -8.2112369537     -8.2112369537
    459.5801696777    133.3333282471     -9.1098842621     -9.1098842621
    459.5381774902    106.6666717529     -9.1296310425     -9.1296310425
    479.7900695801    133.3333282471     -8.2112369537     -8.2112369537
    479.8110656738    160.0000000000     -8.1934776306     -8.1934776306
    459.6221618652    160.0000000000     -9.0856246948     -9.0856246948
    459.5801696777    133.3333282471     -9.1098842621     -9.1098842621
    479.8110656738    160.0000000000     -8.1934776306     -8.1934776306
    479.8320617676    186.6666717529     -8.1741123199     -8.1741123199
    459.6641235352    186.6666717529     -9.0644531250     -9.0644531250
    459.6221618652    160.0000000000     -9.0856246948     -9.0856246948
    479.8320617676    186.6666717529     -8.1741123199     -8.1741123199
    479.8530578613    213.3333282471     -8.1729545593     -8.1729545593
    459.7061157227    213.3333282471     -9.0533018112     -9.0533018112
    459.6641235352    186.6666717529     -9.0644531250     -9.0644531250
    479.8530578613    213.3333282471     -8.1729545593     -8.1729545593
    479.8740539551    240.0000000000     -8.1558647156     -8.1558647156
    459.7481079102    240.0000000000     -9.0531444550     -9.0531444550
    459.7061157227    213.3333282471     -9.0533018112     -9.0533018112
    479.8740539551    240.0000000000     -8.1558647156     -8.1558647156
    479.8950500488    266.6666564941     -8.1360073090     -8.1360073090
    459.7900695801    266.6666564941     -9.0611448288     -9.0611448288
    459.7481079102    240.0000000000     -9.0531444550     -9.0531444550
    479.8950500488    266.6666564941     -8.1360073090     -8.1360073090
    479.9160156250    293.3333435059     -8.1300106049     -8.1300106049
    459.8320617676    293.3333435059     -9.0713443756     -9.0713443756
    459.7900695801    266.6666564941     -9.0611448288     -9.0611448288
    479.9160156250    293.3333435059     -8.1300106049     -8.1300106049
    479.9370422363    320.0000000000     -8.1059169769     -8.1059169769
    459.8740539551    320.0000000000     -9.0766248703     -9.0766248703
    459.8320617676    293.3333435059     -9.0713443756     -9.0713443756
    479.9370422363    320.0000000000     -8.1059169769     -8.1059169769
    479.9580078125    346.6666564941     -8.0874824524     -8.0874824524
    459.9160156250    346.6666564941     -9.0751647949     -9.0751647949
    459.8740539551    320.0000000000     -9.0766248703     -9.0766248703
    479.9580078125    346.6666564941     -8.0874824524     -8.0874824524
    479.9790039062    373.3333435059     -8.0856094360     -8.0856094360
    459.9580078125    373.3333435059     -9.0616846085     -9.0616846085
    459.9160156250    346.6666564941     -9.0751647949     -9.0751647949
    479.9790039062    373.3333435059     -8.0856094360     -8.0856094360
    480.0000000000    400.0000000000     -8.0856094360     -8.0856094360
    460.0000000000    400.0000000000     -9.0616846085     -9.0616846085
    459.9580078125    373.3333435059     -9.0616846085     -9.0616846085
    459.3702392578      0.0000000000     -9.1458549500     -9.1458549500
    459.4122314453     26.6666698456     -9.1458549500     -9.1458549500
    439.1183471680     26.6666698456     -8.9965572357     -8.9965572357
    439.0553588867      0.0000000000     -8.9965572357     -8.9965572357
    459.4122314453     26.6666698456     -9.1458549500     -9.1458549500
    459.4542236328     53.3333282471     -9.1459903717     -9.1459903717
    439.1813049316     53.3333282471     -8.9828548431     -8.9828548431
    439.1183471680     26.6666698456     -8.9965572357     -8.9965572357
    459.4542236328     53.3333282471     -9.1459903717     -9.1459903717
    459.4961853027     80.0000000000     -9.1416053772     -9.1416053772
    439.2442932129     80.0000000000     -8.9925498962     -8.9925498962
    439.1813049316     53.3333282471     -8.9828548431     -8.9828548431
    459.4961853027     80.0000000000     -9.1416053772     -9.1416053772
    459.5381774902    106.6666717529     -9.1296310425     -9.1296310425
    439.3072814941    106.6666717529     -9.0434093475     -9.0434093475
    439.2442932129     80.0000000000     -8.9925498962     -8.9925498962
    459.5381774902    106.6666717529     -9.1296310425     -9.1296310425
    459.5801696777    133.3333282471     -9.1098842621     -9.1098842621
    439.3702392578    133.3333282471     -9.1260795593     -9.1260795593
    439.3072814941    106.6666717529     -9.0434093475     -9.0434093475
    459.5801696777    133.3333282471     -9.1098842621     -9.1098842621
    459.6221618652    160.0000000000     -9.0856246948     -9.0856246948
    439.4332275391    160.0000000000     -9.2078380585     -9.2078380585
    439.3702392578    133.3333282471     -9.1260795593     -9.1260795593
    459.6221618652    160.0000000000     -9.0856246948     -9.0856246948
    459.6641235352    186.6666717529     -9.0644531250     -9.0644531250
    439.4961853027    186.6666717529     -9.2526979446     -9.2526979446
    439.4332275391    160.0000000000     -9.2078380585     -9.2078380585
    459.6641235352    186.6666717529     -9.0644531250     -9.0644531250
    459.7061157227    213.3333282471     -9.0533018112     -9.0533018112
    439.5591735840    213.3333282471     -9.2446947098     -9.2446947098
    439.4961853027    186.6666717529     -9.2526979446     -9.2526979446
    459.7061157227    213.3333282471     -9.0533018112     -9.0533018112
    459.7481079102    240.0000000000     -9.0531444550     -9.0531444550
    439.6221618652    240.0000000000     -9.1987943649     -9.1987943649
    439.5591735840    213.3333282471     -9.2446947098     -9.2446947098
    459.7481079102    240.0000000000     -9.0531444550     -9.0531444550
    459.7900695801    266.6666564941     -9.0611448288     -9.0611448288
    439.6851196289    266.6666564941     -9.1501693726     -9.1501693726
    439.6221618652    240.0000000000     -9.1987943649     -9.1987943649
    459.7900695801    266.6666564941     -9.0611448288     -9.0611448288
    459.8320617676    293.3333435059     -9.0713443756     -9.0713443756
    439.7481079102    293.3333435059     -9.1273450851     -9.1273450851
    439.6851196289    266.6666564941     -9.1501693726     -9.1501693726
    459.8320617676    293.3333435059     -9.0713443756     -9.0713443756
    459.8740539551    320.0000000000     -9.0766248703     -9.0766248703
    439.8110656738    320.0000000000     -9.1339530945     -9.1339530945
    439.7481079102    293.3333435059     -9.1273450851     -9.1273450851
    459.8740539551    320.0000000000     -9.0766248703     -9.0766248703
    459.9160156250    346.6666564941     -9.0751647949     -9.0751647949
    439.8740539551    346.6666564941     -9.1555595398     -9.1555595398
    439.8110656738    320.0000000000     -9.1339530945     -9.1339530945
    459.9160156250    346.6666564941     -9.0751647949     -9.0751647949
    459.9580078125    373.3333435059     -9.0616846085     -9.0616846085
    439.9370422363    373.3333435059     -9.1628828049     -9.1628828049
    439.8740539551    346.6666564941     -9.1555595398     -9.1555595398
    459.9580078125    373.3333435059     -9.0616846085     -9.0616846085
    460.0000000000    400.0000000000     -9.0616846085     -9.0616846085
    440.0000000000    400.0000000000     -9.1628828049     -9.1628828049
    439.9370422363    373.3333435059     -9.1628828049     -9.1628828049
    439.0553588867      0.0000000000     -8.9965572357     -8.9965572357
    439.1183471680     26.6666698456     -8.9965572357     -8.9965572357
    418.8244628906     26.6666698456    -10.2440624237    -10.2440624237
    418.7405090332      0.0000000000    -10.2440624237    -10.2440624237
    439.1183471680     26.6666698456     -8.9965572357     -8.9965572357
    439.1813049316     53.3333282471     -8.9828548431     -8.9828548431
    418.9084167480     53.3333282471    -10.3878192902    -10.3878192902
    418.8244628906     26.6666698456    -10.2440624237    -10.2440624237
    439.1813049316     53.3333282471     -8.9828548431     -8.9828548431
    439.2442932129     80.0000000000     -8.9925498962     -8.9925498962
    418.9924011230     80.0000000000    -10.2932853699    -10.2932853699
    418.9084167480     53.3333282471    -10.3878192902    -10.3878192902
    439.2442932129     80.0000000000     -8.9925498962     -8.9925498962
    439.3072814941    106.6666717529     -9.0434093475     -9.0434093475
    419.0763549805    106.6666717529     -9.7664375305     -9.7664375305
    418.9924011230     80.0000000000    -10.2932853699    -10.2932853699
    439.3072814941    106.6666717529     -9.0434093475     -9.0434093475
    439.3702392578    133.3333282471     -9.1260795593     -9.1260795593
    419.1603393555    133.3333282471     -8.8569374084     -8.8569374084
    419.0763549805    106.6666717529     -9.7664375305     -9.7664375305
    439.3702392578    133.3333282471     -9.1260795593     -9.1260795593
    439.4332275391    160.0000000000     -9.2078380585     -9.2078380585
    419.2442932129    160.0000000000     -7.8502779007     -7.8502779007
    419.1603393555    133.3333282471     -8.8569374084     -8.8569374084
    439.4332275391    160.0000000000     -9.2078380585     -9.2078380585
    439.4961853027    186.6666717529     -9.2526979446     -9.2526979446
    419.3282775879    186.6666717529     -7.1267876625     -7.1267876625
    419.2442932129    160.0000000000     -7.8502779007     -7.8502779007
    439.4961853027    186.6666717529     -9.2526979446     -9.2526979446
    439.5591735840    213.3333282471     -9.2446947098     -9.2446947098
    419.4122314453    213.3333282471     -6.9471578598     -6.9471578598
    419.3282775879    186.6666717529     -7.1267876625     -7.1267876625
    439.5591735840    213.3333282471     -9.2446947098     -9.2446947098
    439.6221618652    240.0000000000     -9.1987943649     -9.1987943649
    419.4961853027    240.0000000000     -7.2879800797     -7.2879800797
    419.4122314453    213.3333282471     -6.9471578598     -6.9471578598
    439.6221618652    240.0000000000     -9.1987943649     -9.1987943649
    439.6851196289    266.6666564941     -9.1501693726     -9.1501693726
    419.5801696777    266.6666564941     -7.8616499901     -7.8616499901
    419.4961853027    240.0000000000     -7.2879800797     -7.2879800797
    439.6851196289    266.6666564941     -9.1501693726     -9.1501693726
    439.7481079102    293.3333435059     -9.1273450851     -9.1273450851
    419.6641235352    293.3333435059     -8.3302793503     -8.3302793503
    419.5801696777    266.6666564941     -7.8616499901     -7.8616499901
    439.7481079102    293.3333435059     -9.1273450851     -9.1273450851
    439.8110656738    320.0000000000     -9.1339530945     -9.1339530945
    419.7481079102    320.0000000000     -8.5204200745     -8.5204200745
    419.6641235352    293.3333435059     -8.3302793503     -8.3302793503
    439.8110656738    320.0000000000     -9.1339530945     -9.1339530945
    439.8740539551    346.6666564941     -9.1555595398     -9.1555595398
    419.8320617676    346.6666564941     -8.4481248856     -8.4481248856
    419.7481079102    320.0000000000     -8.5204200745     -8.5204200745
    439.8740539551    346.6666564941     -9.1555595398     -9.1555595398
    439.9370422363    373.3333435059     -9.1628828049     -9.1628828049
    419.9160156250    373.3333435059     -8.2225551605     -8.2225551605
    419.8320617676    346.6666564941     -8.4481248856     -8.4481248856
    439.9370422363    373.3333435059     -9.1628828049     -9.1628828049
    440.0000000000    400.0000000000     -9.1628828049     -9.1628828049
    420.0000000000    400.0000000000     -8.2225551605     -8.2225551605
    419.9160156250    373.3333435059     -8.2225551605     -8.2225551605
    418.7405090332      0.0000000000    -10.2440624237    -10.2440624237
    418.8244628906     26.6666698456    -10.2440624237    -10.2440624237
    398.5305786133     26.6666698456    -10.5623750687    -10.5623750687
    398.4256286621      0.0000000000    -10.5623750687    -10.5623750687
    418.8244628906     26.6666698456    -10.2440624237    -10.2440624237
    418.9084167480     53.3333282471    -10.3878192902    -10.3878192902
    398.6355285645     53.3333282471    -10.6745777130    -10.6745777130
    398.5305786133     26.6666698456    -10.5623750687    -10.5623750687
    418.9084167480     53.3333282471    -10.3878192902    -10.3878192902
    418.9924011230     80.0000000000    -10.2932853699    -10.2932853699
    398.7405090332     80.0000000000    -10.7655801773    -10.7655801773
    398.6355285645     53.3333282471    -10.6745777130    -10.6745777130
    418.9924011230     80.0000000000    -10.2932853699    -10.2932853699
    419.0763549805    106.6666717529     -9.7664375305     -9.7664375305
    398.8454589844    106.6666717529    -10.6885671616    -10.6885671616
    398.7405090332     80.0000000000    -10.7655801773    -10.7655801773
    419.0763549805    106.6666717529     -9.7664375305     -9.7664375305
    419.1603393555    133.3333282471     -8.8569374084     -8.8569374084
    398.9504089355    133.3333282471    -10.0866222382    -10.0866222382
    398.8454589844    106.6666717529    -10.6885671616    -10.6885671616
    419.1603393555    133.3333282471     -8.8569374084     -8.8569374084
    419.2442932129    160.0000000000     -7.8502779007     -7.8502779007
    399.0553588867    160.0000000000     -8.5698652267     -8.5698652267
    398.9504089355    133.3333282471    -10.0866222382    -10.0866222382
    419.2442932129    160.0000000000     -7.8502779007     -7.8502779007
    419.3282775879    186.6666717529     -7.1267876625     -7.1267876625
    399.1603393555    186.6666717529     -6.2600898743     -6.2600898743
    399.0553588867    160.0000000000     -8.5698652267     -8.5698652267
    419.3282775879    186.6666717529     -7.1267876625     -7.1267876625
    419.4122314453    213.3333282471     -6.9471578598     -6.9471578598
    399.2652893066    213.3333282471     -4.0212173462     -4.0212173462
    399.1603393555    186.6666717529     -6.2600898743     -6.2600898743
    419.4122314453    213.3333282471     -6.9471578598     -6.9471578598
    419.4961853027    240.0000000000     -7.2879800797     -7.2879800797
    399.3702392578    240.0000000000     -2.9856350422     -2.9856350422
    399.2652893066    213.3333282471     -4.0212173462     -4.0212173462
    419.4961853027    240.0000000000     -7.2879800797     -7.2879800797
    419.5801696777    266.6666564941     -7.8616499901     -7.8616499901
    399.4752197266    266.6666564941     -3.6746852398     -3.6746852398
    399.3702392578    240.0000000000     -2.9856350422     -2.9856350422
    419.5801696777    266.6666564941     -7.8616499901     -7.8616499901
    419.6641235352    293.3333435059     -8.3302793503     -8.3302793503
    399.5801696777    293.3333435059     -5.5403876305     -5.5403876305
    399.4752197266    266.6666564941     -3.6746852398     -3.6746852398
    419.6641235352    293.3333435059     -8.3302793503     -8.3302793503
    419.7481079102    320.0000000000     -8.5204200745     -8.5204200745
    399.6851196289    320.0000000000     -7.4045829773     -7.4045829773
    399.5801696777    293.3333435059     -5.5403876305     -5.5403876305
    419.7481079102    320.0000000000     -8.5204200745     -8.5204200745
    419.8320617676    346.6666564941     -8.4481248856     -8.4481248856
    399.7900695801    346.6666564941     -8.2982826233     -8.2982826233
    399.6851196289    320.0000000000     -7.4045829773     -7.4045829773
    419.8320617676    346.6666564941     -8.4481248856     -8.4481248856
    419.9160156250    373.3333435059     -8.2225551605     -8.2225551605
    399.8950500488    373.3333435059     -8.0147371292     -8.0147371292
    399.7900695801    346.6666564941     -8.2982826233     -8.2982826233
    419.9160156250    373.3333435059     -8.2225551605     -8.2225551605
    420.0000000000    400.0000000000     -8.2225551605     -8.2225551605
    400.0000000000    400.0000000000     -8.0147371292     -8.0147371292
    399.8950500488    373.3333435059     -8.0147371292     -8.0147371292
    398.4256286621      0.0000000000    -10.5623750687    -10.5623750687
    398.5305786133     26.6666698456    -10.5623750687    -10.5623750687
    378.2366943359     26.6666698456     -2.7966775894     -2.7966775894
    378.1107482910      0.0000000000     -2.7966775894     -2.7966775894
    398.5305786133     26.6666698456    -10.5623750687    -10.5623750687
    398.6355285645     53.3333282471    -10.6745777130    -10.6745777130
    378.3626403809     53.3333282471     -1.3844825029     -1.3844825029
    378.2366943359     26.6666698456     -2.7966775894     -2.7966775894
    398.6355285645     53.3333282471    -10.6745777130    -10.6745777130
    398.7405090332     80.0000000000    -10.7655801773    -10.7655801773
    378.4885864258     80.0000000000     -1.4986572266     -1.4986572266
    378.3626403809     53.3333282471     -1.3844825029     -1.3844825029
    398.7405090332     80.0000000000    -10.7655801773    -10.7655801773
    398.8454589844    106.6666717529    -10.6885671616    -10.6885671616
    378.6145629883    106.6666717529     -4.3662724495     -4.3662724495
    378.4885864258     80.0000000000     -1.4986572266     -1.4986572266
    398.8454589844    106.6666717529    -10.6885671616    -10.6885671616
    398.9504089355    133.3333282471    -10.0866222382    -10.0866222382
    378.7405090332    133.3333282471     -8.7294616699     -8.7294616699
    378.6145629883    106.6666717529     -4.3662724495     -4.3662724495
    398.9504089355    133.3333282471    -10.0866222382    -10.0866222382
    399.0553588867    160.0000000000     -8.5698652267     -8.5698652267
    378.8664550781    160.0000000000    -11.4580326080    -11.4580326080
    378.7405090332    133.3333282471     -8.7294616699     -8.7294616699
    399.0553588867    160.0000000000     -8.5698652267     -8.5698652267
    399.1603393555    186.6666717529     -6.2600898743     -6.2600898743
    378.9924011230    186.6666717529    -10.1248121262    -10.1248121262
    378.8664550781    160.0000000000    -11.4580326080    -11.4580326080
    399.1603393555    186.6666717529     -6.2600898743     -6.2600898743
    399.2652893066    213.3333282471     -4.0212173462     -4.0212173462
    379.1183471680    213.3333282471     -5.2844624519     -5.2844624519
    378.9924011230    186.6666717529    -10.1248121262    -10.1248121262
    399.2652893066    213.3333282471     -4.0212173462     -4.0212173462
    399.3702392578    240.0000000000     -2.9856350422     -2.9856350422
    379.2442932129    240.0000000000     -0.2936549783     -0.2936549783
    379.1183471680    213.3333282471     -5.2844624519     -5.2844624519
    399.3702392578    240.0000000000     -2.9856350422     -2.9856350422
    399.4752197266    266.6666564941     -3.6746852398     -3.6746852398
    379.3702392578    266.6666564941      1.4046349525      1.4046349525
    379.2442932129    240.0000000000     -0.2936549783     -0.2936549783
    399.4752197266    266.6666564941     -3.6746852398     -3.6746852398
    399.5801696777    293.3333435059     -5.5403876305     -5.5403876305
    379.4961853027    293.3333435059     -0.8759075403     -0.8759075403
    379.3702392578    266.6666564941      1.4046349525      1.4046349525
    399.5801696777    293.3333435059     -5.5403876305     -5.5403876305
    399.6851196289    320.0000000000     -7.4045829773     -7.4045829773
    379.6221618652    320.0000000000     -4.8501005173     -4.8501005173
    379.4961853027    293.3333435059     -0.8759075403     -0.8759075403
    399.6851196289    320.0000000000     -7.4045829773     -7.4045829773
    399.7900695801    346.6666564941     -8.2982826233     -8.2982826233
    379.7481079102    346.6666564941     -7.6180925369     -7.6180925369
    379.6221618652    320.0000000000     -4.8501005173     -4.8501005173
    399.7900695801    346.6666564941     -8.2982826233     -8.2982826233
    399.8950500488    373.3333435059     -8.0147371292     -8.0147371292
    379.8740539551    373.3333435059     -7.9664320946     -7.9664320946
    379.7481079102    346.6666564941     -7.6180925369     -7.6180925369
    399.8950500488    373.3333435059     -8.0147371292     -8.0147371292
    400.0000000000    400.0000000000     -8.0147371292     -8.0147371292
    380.0000000000    400.0000000000     -7.9664320946     -7.9664320946
    379.8740539551    373.3333435059     -7.9664320946     -7.9664320946
    378.1107482910      0.0000000000     -2.7966775894     -2.7966775894
    378.2366943359     26.6666698456     -2.7966775894     -2.7966775894
    357.9428100586     26.6666698456      3.5007224083      3.5007224083
    357.7958679199      0.0000000000      3.5007224083      3.5007224083
    378.2366943359     26.6666698456     -2.7966775894     -2.7966775894
    378.3626403809     53.3333282471     -1.3844825029     -1.3844825029
    358.0897521973     53.3333282471      7.3322525024      7.3322525024
    357.9428100586     26.6666698456      3.5007224083      3.5007224083
    378.3626403809     53.3333282471     -1.3844825029     -1.3844825029
    378.4885864258     80.0000000000     -1.4986572266     -1.4986572266
    358.2366943359     80.0000000000      9.0651855469      9.0651855469
    358.0897521973     53.3333282471      7.3322525024      7.3322525024
    378.4885864258     80.0000000000     -1.4986572266     -1.4986572266
    378.6145629883    106.6666717529     -4.3662724495     -4.3662724495
    358.3836364746    106.6666717529      6.1204876900      6.1204876900
    358.2366943359     80.0000000000      9.0651855469      9.0651855469
    378.6145629883    106.6666717529     -4.3662724495     -4.3662724495
    378.7405090332    133.3333282471     -8.7294616699     -8.7294616699
    358.5305786133    133.3333282471     -0.4419448078     -0.4419448078
    358.3836364746    106.6666717529      6.1204876900      6.1204876900
    378.7405090332    133.3333282471     -8.7294616699     -8.7294616699
    378.8664550781    160.0000000000    -11.4580326080    -11.4580326080
    358.6775207520    160.0000000000     -6.6145396233     -6.6145396233
    358.5305786133    133.3333282471     -0.4419448078     -0.4419448078
    378.8664550781    160.0000000000    -11.4580326080    -11.4580326080
    378.9924011230    186.6666717529    -10.1248121262    -10.1248121262
    358.8244628906    186.6666717529     -8.4711151123     -8.4711151123
    358.6775207520    160.0000000000     -6.6145396233     -6.6145396233
    378.9924011230    186.6666717529    -10.1248121262    -10.1248121262
    379.1183471680    213.3333282471     -5.2844624519     -5.2844624519
    358.9714050293    213.3333282471     -5.3215999603     -5.3215999603
    358.8244628906    186.6666717529     -8.4711151123     -8.4711151123
    379.1183471680    213.3333282471     -5.2844624519     -5.2844624519
    379.2442932129    240.0000000000     -0.2936549783     -0.2936549783
    359.1183471680    240.0000000000     -0.2333524823     -0.2333524823
    358.9714050293    213.3333282471     -5.3215999603     -5.3215999603
    379.2442932129    240.0000000000     -0.2936549783     -0.2936549783
    379.3702392578    266.6666564941      1.4046349525      1.4046349525
    359.2652893066    266.6666564941      2.6988048553      2.6988048553
    359.1183471680    240.0000000000     -0.2333524823     -0.2333524823
    379.3702392578    266.6666564941      1.4046349525      1.4046349525
    379.4961853027    293.3333435059     -0.8759075403     -0.8759075403
    359.4122314453    293.3333435059      1.8800975084      1.8800975084
    359.2652893066    266.6666564941      2.6988048553      2.6988048553
    379.4961853027    293.3333435059     -0.8759075403     -0.8759075403
    379.6221618652    320.0000000000     -4.8501005173     -4.8501005173
    359.5591735840    320.0000000000     -0.8933650255     -0.8933650255
    359.4122314453    293.3333435059      1.8800975084      1.8800975084