 VARIABLES= "X","Y","Z","yita"  
ZONE N=                                        3000 E=                              750 F=FEPOINT, ET=QUADRILATERAL
    500.0000000000      0.0000000000     -8.8944396973     -8.8944396973
    500.0000000000     26.6666698456     -8.8944396973     -8.8944396973
    479.7061157227     26.6666698456     -8.8944396973     -8.8944396973
    479.6851196289      0.0000000000     -8.8944396973     -8.8944396973
    500.0000000000     26.6666698456     -8.8944396973     -8.8944396973
    500.0000000000     53.3333282471     -8.8957996368     -8.8957996368
    479.7271118164     53.3333282471     -8.8957996368     -8.8957996368
    479.7061157227     26.6666698456     -8.8944396973     -8.8944396973
    500.0000000000     53.3333282471     -8.8957996368     -8.8957996368
    500.0000000000     80.0000000000     -8.8896522522     -8.8896522522
    479.7481079102     80.0000000000     -8.8896522522     -8.8896522522
    479.7271118164     53.3333282471     -8.8957996368     -8.8957996368
    500.0000000000     80.0000000000     -8.8896522522     -8.8896522522
    500.0000000000    106.6666717529     -8.8858699799     -8.8858699799
    479.7691040039    106.6666717529     -8.8858699799     -8.8858699799
    479.7481079102     80.0000000000     -8.8896522522     -8.8896522522
    500.0000000000    106.6666717529     -8.8858699799     -8.8858699799
    500.0000000000    133.3333282471     -8.8910770416     -8.8910770416
    479.7900695801    133.3333282471     -8.8910770416     -8.8910770416
    479.7691040039    106.6666717529     -8.8858699799     -8.8858699799
    500.0000000000    133.3333282471     -8.8910770416     -8.8910770416
    500.0000000000    160.0000000000     -8.8787593842     -8.8787593842
    479.8110656738    160.0000000000     -8.8787593842     -8.8787593842
    479.7900695801    133.3333282471     -8.8910770416     -8.8910770416
    500.0000000000    160.0000000000     -8.8787593842     -8.8787593842
    500.0000000000    186.6666717529     -8.8646755219     -8.8646755219
    479.8320617676    186.6666717529     -8.8646755219     -8.8646755219
    479.8110656738    160.0000000000     -8.8787593842     -8.8787593842
    500.0000000000    186.6666717529     -8.8646755219     -8.8646755219
    500.0000000000    213.3333282471     -8.8664722443     -8.8664722443
    479.8530578613    213.3333282471     -8.8664722443     -8.8664722443
    479.8320617676    186.6666717529     -8.8646755219     -8.8646755219
    500.0000000000    213.3333282471     -8.8664722443     -8.8664722443
    500.0000000000    240.0000000000     -8.8611497879     -8.8611497879
    479.8740539551    240.0000000000     -8.8611497879     -8.8611497879
    479.8530578613    213.3333282471     -8.8664722443     -8.8664722443
    500.0000000000    240.0000000000     -8.8611497879     -8.8611497879
    500.0000000000    266.6666564941     -8.8539247513     -8.8539247513
    479.8950500488    266.6666564941     -8.8539247513     -8.8539247513
    479.8740539551    240.0000000000     -8.8611497879     -8.8611497879
    500.0000000000    266.6666564941     -8.8539247513     -8.8539247513
    500.0000000000    293.3333435059     -8.8532524109     -8.8532524109
    479.9160156250    293.3333435059     -8.8532524109     -8.8532524109
    479.8950500488    266.6666564941     -8.8539247513     -8.8539247513
    500.0000000000    293.3333435059     -8.8532524109     -8.8532524109
    500.0000000000    320.0000000000     -8.8496103287     -8.8496103287
    479.9370422363    320.0000000000     -8.8496103287     -8.8496103287
    479.9160156250    293.3333435059     -8.8532524109     -8.8532524109
    500.0000000000    320.0000000000     -8.8496103287     -8.8496103287
    500.0000000000    346.6666564941     -8.8501110077     -8.8501110077
    479.9580078125    346.6666564941     -8.8501110077     -8.8501110077
    479.9370422363    320.0000000000     -8.8496103287     -8.8496103287
    500.0000000000    346.6666564941     -8.8501110077     -8.8501110077
    500.0000000000    373.3333435059     -8.8511447906     -8.8511447906
    479.9790039062    373.3333435059     -8.8511447906     -8.8511447906
    479.9580078125    346.6666564941     -8.8501110077     -8.8501110077
    500.0000000000    373.3333435059     -8.8511447906     -8.8511447906
    500.0000000000    400.0000000000     -8.8511447906     -8.8511447906
    480.0000000000    400.0000000000     -8.8511447906     -8.8511447906
    479.9790039062    373.3333435059     -8.8511447906     -8.8511447906
    479.6851196289      0.0000000000     -8.8944396973     -8.8944396973
    479.7061157227     26.6666698456     -8.8944396973     -8.8944396973
    459.4122314453     26.6666698456     -9.2889947891     -9.2889947891
    459.3702392578      0.0000000000     -9.2889947891     -9.2889947891
    479.7061157227     26.6666698456     -8.8944396973     -8.8944396973
    479.7271118164     53.3333282471     -8.8957996368     -8.8957996368
    459.4542236328     53.3333282471     -9.2914018631     -9.2914018631
    459.4122314453     26.6666698456     -9.2889947891     -9.2889947891
    479.7271118164     53.3333282471     -8.8957996368     -8.8957996368
    479.7481079102     80.0000000000     -8.8896522522     -8.8896522522
    459.4961853027     80.0000000000     -9.2880878448     -9.2880878448
    459.4542236328     53.3333282471     -9.2914018631     -9.2914018631
    479.7481079102     80.0000000000     -8.8896522522     -8.8896522522
    479.7691040039    106.6666717529     -8.8858699799     -8.8858699799
    459.5381774902    106.6666717529     -9.2741622925     -9.2741622925
    459.4961853027     80.0000000000     -9.2880878448     -9.2880878448
    479.7691040039    106.6666717529     -8.8858699799     -8.8858699799
    479.7900695801    133.3333282471     -8.8910770416     -8.8910770416
    459.5801696777    133.3333282471     -9.2501478195     -9.2501478195
    459.5381774902    106.6666717529     -9.2741622925     -9.2741622925
    479.7900695801    133.3333282471     -8.8910770416     -8.8910770416
    479.8110656738    160.0000000000     -8.8787593842     -8.8787593842
    459.6221618652    160.0000000000     -9.2233572006     -9.2233572006
    459.5801696777    133.3333282471     -9.2501478195     -9.2501478195
    479.8110656738    160.0000000000     -8.8787593842     -8.8787593842
    479.8320617676    186.6666717529     -8.8646755219     -8.8646755219
    459.6641235352    186.6666717529     -9.2050800323     -9.2050800323
    459.6221618652    160.0000000000     -9.2233572006     -9.2233572006
    479.8320617676    186.6666717529     -8.8646755219     -8.8646755219
    479.8530578613    213.3333282471     -8.8664722443     -8.8664722443
    459.7061157227    213.3333282471     -9.2021751404     -9.2021751404
    459.6641235352    186.6666717529     -9.2050800323     -9.2050800323
    479.8530578613    213.3333282471     -8.8664722443     -8.8664722443
    479.8740539551    240.0000000000     -8.8611497879     -8.8611497879
    459.7481079102    240.0000000000     -9.2118024826     -9.2118024826
    459.7061157227    213.3333282471     -9.2021751404     -9.2021751404
    479.8740539551    240.0000000000     -8.8611497879     -8.8611497879
    479.8950500488    266.6666564941     -8.8539247513     -8.8539247513
    459.7900695801    266.6666564941     -9.2259626389     -9.2259626389
    459.7481079102    240.0000000000     -9.2118024826     -9.2118024826
    479.8950500488    266.6666564941     -8.8539247513     -8.8539247513
    479.9160156250    293.3333435059     -8.8532524109     -8.8532524109
    459.8320617676    293.3333435059     -9.2374668121     -9.2374668121
    459.7900695801    266.6666564941     -9.2259626389     -9.2259626389
    479.9160156250    293.3333435059     -8.8532524109     -8.8532524109
    479.9370422363    320.0000000000     -8.8496103287     -8.8496103287
    459.8740539551    320.0000000000     -9.2427148819     -9.2427148819
    459.8320617676    293.3333435059     -9.2374668121     -9.2374668121
    479.9370422363    320.0000000000     -8.8496103287     -8.8496103287
    479.9580078125    346.6666564941     -8.8501110077     -8.8501110077
    459.9160156250    346.6666564941     -9.2418346405     -9.2418346405
    459.8740539551    320.0000000000     -9.2427148819     -9.2427148819
    479.9580078125    346.6666564941     -8.8501110077     -8.8501110077
    479.9790039062    373.3333435059     -8.8511447906     -8.8511447906
    459.9580078125    373.3333435059     -9.2302427292     -9.2302427292
    459.9160156250    346.6666564941     -9.2418346405     -9.2418346405
    479.9790039062    373.3333435059     -8.8511447906     -8.8511447906
    480.0000000000    400.0000000000     -8.8511447906     -8.8511447906
    460.0000000000    400.0000000000     -9.2302427292     -9.2302427292
    459.9580078125    373.3333435059     -9.2302427292     -9.2302427292
    459.3702392578      0.0000000000     -9.2889947891     -9.2889947891
    459.4122314453     26.6666698456     -9.2889947891     -9.2889947891
    439.1183471680     26.6666698456     -8.5215625763     -8.5215625763
    439.0553588867      0.0000000000     -8.5215625763     -8.5215625763
    459.4122314453     26.6666698456     -9.2889947891     -9.2889947891
    459.4542236328     53.3333282471     -9.2914018631     -9.2914018631
    439.1813049316     53.3333282471     -8.5052051544     -8.5052051544
    439.1183471680     26.6666698456     -8.5215625763     -8.5215625763
    459.4542236328     53.3333282471     -9.2914018631     -9.2914018631
    459.4961853027     80.0000000000     -9.2880878448     -9.2880878448
    439.2442932129     80.0000000000     -8.5131101608     -8.5131101608
    439.1813049316     53.3333282471     -8.5052051544     -8.5052051544
    459.4961853027     80.0000000000     -9.2880878448     -9.2880878448
    459.5381774902    106.6666717529     -9.2741622925     -9.2741622925
    439.3072814941    106.6666717529     -8.5710029602     -8.5710029602
    439.2442932129     80.0000000000     -8.5131101608     -8.5131101608
    459.5381774902    106.6666717529     -9.2741622925     -9.2741622925
    459.5801696777    133.3333282471     -9.2501478195     -9.2501478195
    439.3702392578    133.3333282471     -8.6699924469     -8.6699924469
    439.3072814941    106.6666717529     -8.5710029602     -8.5710029602
    459.5801696777    133.3333282471     -9.2501478195     -9.2501478195
    459.6221618652    160.0000000000     -9.2233572006     -9.2233572006
    439.4332275391    160.0000000000     -8.7643699646     -8.7643699646
    439.3702392578    133.3333282471     -8.6699924469     -8.6699924469
    459.6221618652    160.0000000000     -9.2233572006     -9.2233572006
    459.6641235352    186.6666717529     -9.2050800323     -9.2050800323
    439.4961853027    186.6666717529     -8.8047199249     -8.8047199249
    439.4332275391    160.0000000000     -8.7643699646     -8.7643699646
    459.6641235352    186.6666717529     -9.2050800323     -9.2050800323
    459.7061157227    213.3333282471     -9.2021751404     -9.2021751404
    439.5591735840    213.3333282471     -8.7774572372     -8.7774572372
    439.4961853027    186.6666717529     -8.8047199249     -8.8047199249
    459.7061157227    213.3333282471     -9.2021751404     -9.2021751404
    459.7481079102    240.0000000000     -9.2118024826     -9.2118024826
    439.6221618652    240.0000000000     -8.7144899368     -8.7144899368
    439.5591735840    213.3333282471     -8.7774572372     -8.7774572372
    459.7481079102    240.0000000000     -9.2118024826     -9.2118024826
    459.7900695801    266.6666564941     -9.2259626389     -9.2259626389
    439.6851196289    266.6666564941     -8.6651000977     -8.6651000977
    439.6221618652    240.0000000000     -8.7144899368     -8.7144899368
    459.7900695801    266.6666564941     -9.2259626389     -9.2259626389
    459.8320617676    293.3333435059     -9.2374668121     -9.2374668121
    439.7481079102    293.3333435059     -8.6562528610     -8.6562528610
    439.6851196289    266.6666564941     -8.6651000977     -8.6651000977
    459.8320617676    293.3333435059     -9.2374668121     -9.2374668121
    459.8740539551    320.0000000000     -9.2427148819     -9.2427148819
    439.8110656738    320.0000000000     -8.6793022156     -8.6793022156
    439.7481079102    293.3333435059     -8.6562528610     -8.6562528610
    459.8740539551    320.0000000000     -9.2427148819     -9.2427148819
    459.9160156250    346.6666564941     -9.2418346405     -9.2418346405
    439.8740539551    346.6666564941     -8.7111072540     -8.7111072540
    439.8110656738    320.0000000000     -8.6793022156     -8.6793022156
    459.9160156250    346.6666564941     -9.2418346405     -9.2418346405
    459.9580078125    373.3333435059     -9.2302427292     -9.2302427292
    439.9370422363    373.3333435059     -8.7205104828     -8.7205104828
    439.8740539551    346.6666564941     -8.7111072540     -8.7111072540
    459.9580078125    373.3333435059     -9.2302427292     -9.2302427292
    460.0000000000    400.0000000000     -9.2302427292     -9.2302427292
    440.0000000000    400.0000000000     -8.7205104828     -8.7205104828
    439.9370422363    373.3333435059     -8.7205104828     -8.7205104828
    439.0553588867      0.0000000000     -8.5215625763     -8.5215625763
    439.1183471680     26.6666698456     -8.5215625763     -8.5215625763
    418.8244628906     26.6666698456     -9.1549701691     -9.1549701691
    418.7405090332      0.0000000000     -9.1549701691     -9.1549701691
    439.1183471680     26.6666698456     -8.5215625763     -8.5215625763
    439.1813049316     53.3333282471     -8.5052051544     -8.5052051544
    418.9084167480     53.3333282471     -9.3644504547     -9.3644504547
    418.8244628906     26.6666698456     -9.1549701691     -9.1549701691
    439.1813049316     53.3333282471     -8.5052051544     -8.5052051544
    439.2442932129     80.0000000000     -8.5131101608     -8.5131101608
    418.9924011230     80.0000000000     -9.3036775589     -9.3036775589
    418.9084167480     53.3333282471     -9.3644504547     -9.3644504547
    439.2442932129     80.0000000000     -8.5131101608     -8.5131101608
    439.3072814941    106.6666717529     -8.5710029602     -8.5710029602
    419.0763549805    106.6666717529     -8.6681499481     -8.6681499481
    418.9924011230     80.0000000000     -9.3036775589     -9.3036775589
    439.3072814941    106.6666717529     -8.5710029602     -8.5710029602
    439.3702392578    133.3333282471     -8.6699924469     -8.6699924469
    419.1603393555    133.3333282471     -7.5121951103     -7.5121951103
    419.0763549805    106.6666717529     -8.6681499481     -8.6681499481
    439.3702392578    133.3333282471     -8.6699924469     -8.6699924469
    439.4332275391    160.0000000000     -8.7643699646     -8.7643699646
    419.2442932129    160.0000000000     -6.3117227554     -6.3117227554
    419.1603393555    133.3333282471     -7.5121951103     -7.5121951103
    439.4332275391    160.0000000000     -8.7643699646     -8.7643699646
    439.4961853027    186.6666717529     -8.8047199249     -8.8047199249
    419.3282775879    186.6666717529     -5.6472330093     -5.6472330093
    419.2442932129    160.0000000000     -6.3117227554     -6.3117227554
    439.4961853027    186.6666717529     -8.8047199249     -8.8047199249
    439.5591735840    213.3333282471     -8.7774572372     -8.7774572372
    419.4122314453    213.3333282471     -5.7669601440     -5.7669601440
    419.3282775879    186.6666717529     -5.6472330093     -5.6472330093
    439.5591735840    213.3333282471     -8.7774572372     -8.7774572372
    439.6221618652    240.0000000000     -8.7144899368     -8.7144899368
    419.4961853027    240.0000000000     -6.4193248749     -6.4193248749
    419.4122314453    213.3333282471     -5.7669601440     -5.7669601440
    439.6221618652    240.0000000000     -8.7144899368     -8.7144899368
    439.6851196289    266.6666564941     -8.6651000977     -8.6651000977
    419.5801696777    266.6666564941     -7.0952200890     -7.0952200890
    419.4961853027    240.0000000000     -6.4193248749     -6.4193248749
    439.6851196289    266.6666564941     -8.6651000977     -8.6651000977
    439.7481079102    293.3333435059     -8.6562528610     -8.6562528610
    419.6641235352    293.3333435059     -7.4420146942     -7.4420146942
    419.5801696777    266.6666564941     -7.0952200890     -7.0952200890
    439.7481079102    293.3333435059     -8.6562528610     -8.6562528610
    439.8110656738    320.0000000000     -8.6793022156     -8.6793022156
    419.7481079102    320.0000000000     -7.4437723160     -7.4437723160
    419.6641235352    293.3333435059     -7.4420146942     -7.4420146942
    439.8110656738    320.0000000000     -8.6793022156     -8.6793022156
    439.8740539551    346.6666564941     -8.7111072540     -8.7111072540
    419.8320617676    346.6666564941     -7.2519350052     -7.2519350052
    419.7481079102    320.0000000000     -7.4437723160     -7.4437723160
    439.8740539551    346.6666564941     -8.7111072540     -8.7111072540
    439.9370422363    373.3333435059     -8.7205104828     -8.7205104828
    419.9160156250    373.3333435059     -6.9949703217     -6.9949703217
    419.8320617676    346.6666564941     -7.2519350052     -7.2519350052
    439.9370422363    373.3333435059     -8.7205104828     -8.7205104828
    440.0000000000    400.0000000000     -8.7205104828     -8.7205104828
    420.0000000000    400.0000000000     -6.9949703217     -6.9949703217
    419.9160156250    373.3333435059     -6.9949703217     -6.9949703217
    418.7405090332      0.0000000000     -9.1549701691     -9.1549701691
    418.8244628906     26.6666698456     -9.1549701691     -9.1549701691
    398.5305786133     26.6666698456     -9.4398002625     -9.4398002625
    398.4256286621      0.0000000000     -9.4398002625     -9.4398002625
    418.8244628906     26.6666698456     -9.1549701691     -9.1549701691
    418.9084167480     53.3333282471     -9.3644504547     -9.3644504547
    398.6355285645     53.3333282471     -9.8311977386     -9.8311977386
    398.5305786133     26.6666698456     -9.4398002625     -9.4398002625
    418.9084167480     53.3333282471     -9.3644504547     -9.3644504547
    418.9924011230     80.0000000000     -9.3036775589     -9.3036775589
    398.7405090332     80.0000000000    -10.0726146698    -10.0726146698
    398.6355285645     53.3333282471     -9.8311977386     -9.8311977386
    418.9924011230     80.0000000000     -9.3036775589     -9.3036775589
    419.0763549805    106.6666717529     -8.6681499481     -8.6681499481
    398.8454589844    106.6666717529     -9.5942230225     -9.5942230225
    398.7405090332     80.0000000000    -10.0726146698    -10.0726146698
    419.0763549805    106.6666717529     -8.6681499481     -8.6681499481
    419.1603393555    133.3333282471     -7.5121951103     -7.5121951103
    398.9504089355    133.3333282471     -8.0226478577     -8.0226478577
    398.8454589844    106.6666717529     -9.5942230225     -9.5942230225
    419.1603393555    133.3333282471     -7.5121951103     -7.5121951103
    419.2442932129    160.0000000000     -6.3117227554     -6.3117227554
    399.0553588867    160.0000000000     -5.5818648338     -5.5818648338
    398.9504089355    133.3333282471     -8.0226478577     -8.0226478577
    419.2442932129    160.0000000000     -6.3117227554     -6.3117227554
    419.3282775879    186.6666717529     -5.6472330093     -5.6472330093
    399.1603393555    186.6666717529     -3.1370325089     -3.1370325089
    399.0553588867    160.0000000000     -5.5818648338     -5.5818648338
    419.3282775879    186.6666717529     -5.6472330093     -5.6472330093
    419.4122314453    213.3333282471     -5.7669601440     -5.7669601440
    399.2652893066    213.3333282471     -1.7250750065     -1.7250750065
    399.1603393555    186.6666717529     -3.1370325089     -3.1370325089
    419.4122314453    213.3333282471     -5.7669601440     -5.7669601440
    419.4961853027    240.0000000000     -6.4193248749     -6.4193248749
    399.3702392578    240.0000000000     -1.8201426268     -1.8201426268
    399.2652893066    213.3333282471     -1.7250750065     -1.7250750065
    419.4961853027    240.0000000000     -6.4193248749     -6.4193248749
    419.5801696777    266.6666564941     -7.0952200890     -7.0952200890
    399.4752197266    266.6666564941     -3.0374999046     -3.0374999046
    399.3702392578    240.0000000000     -1.8201426268     -1.8201426268
    419.5801696777    266.6666564941     -7.0952200890     -7.0952200890
    419.6641235352    293.3333435059     -7.4420146942     -7.4420146942
    399.5801696777    293.3333435059     -4.5785374641     -4.5785374641
    399.4752197266    266.6666564941     -3.0374999046     -3.0374999046
    419.6641235352    293.3333435059     -7.4420146942     -7.4420146942
    419.7481079102    320.0000000000     -7.4437723160     -7.4437723160
    399.6851196289    320.0000000000     -5.8002448082     -5.8002448082
    399.5801696777    293.3333435059     -4.5785374641     -4.5785374641
    419.7481079102    320.0000000000     -7.4437723160     -7.4437723160
    419.8320617676    346.6666564941     -7.2519350052     -7.2519350052
    399.7900695801    346.6666564941     -6.3231773376     -6.3231773376
    399.6851196289    320.0000000000     -5.8002448082     -5.8002448082
    419.8320617676    346.6666564941     -7.2519350052     -7.2519350052
    419.9160156250    373.3333435059     -6.9949703217     -6.9949703217
    399.8950500488    373.3333435059     -6.0161056519     -6.0161056519
    399.7900695801    346.6666564941     -6.3231773376     -6.3231773376
    419.9160156250    373.3333435059     -6.9949703217     -6.9949703217
    420.0000000000    400.0000000000     -6.9949703217     -6.9949703217
    400.0000000000    400.0000000000     -6.0161056519     -6.0161056519
    399.8950500488    373.3333435059     -6.0161056519     -6.0161056519
    398.4256286621      0.0000000000     -9.4398002625     -9.4398002625
    398.5305786133     26.6666698456     -9.4398002625     -9.4398002625
    378.2366943359     26.6666698456     -1.7872450352     -1.7872450352
    378.1107482910      0.0000000000     -1.7872450352     -1.7872450352
    398.5305786133     26.6666698456     -9.4398002625     -9.4398002625
    398.6355285645     53.3333282471     -9.8311977386     -9.8311977386
    378.3626403809     53.3333282471     -0.7555427551     -0.7555427551
    378.2366943359     26.6666698456     -1.7872450352     -1.7872450352
    398.6355285645     53.3333282471     -9.8311977386     -9.8311977386
    398.7405090332     80.0000000000    -10.0726146698    -10.0726146698
    378.4885864258     80.0000000000     -1.0908327103     -1.0908327103
    378.3626403809     53.3333282471     -0.7555427551     -0.7555427551
    398.7405090332     80.0000000000    -10.0726146698    -10.0726146698
    398.8454589844    106.6666717529     -9.5942230225     -9.5942230225
    378.6145629883    106.6666717529     -3.6860077381     -3.6860077381
    378.4885864258     80.0000000000     -1.0908327103     -1.0908327103
    398.8454589844    106.6666717529     -9.5942230225     -9.5942230225
    398.9504089355    133.3333282471     -8.0226478577     -8.0226478577
    378.7405090332    133.3333282471     -7.2344079018     -7.2344079018
    378.6145629883    106.6666717529     -3.6860077381     -3.6860077381
    398.9504089355    133.3333282471     -8.0226478577     -8.0226478577
    399.0553588867    160.0000000000     -5.5818648338     -5.5818648338
    378.8664550781    160.0000000000     -8.9088954926     -8.9088954926
    378.7405090332    133.3333282471     -7.2344079018     -7.2344079018
    399.0553588867    160.0000000000     -5.5818648338     -5.5818648338
    399.1603393555    186.6666717529     -3.1370325089     -3.1370325089
    378.9924011230    186.6666717529     -6.8847675323     -6.8847675323
    378.8664550781    160.0000000000     -8.9088954926     -8.9088954926
    399.1603393555    186.6666717529     -3.1370325089     -3.1370325089
    399.2652893066    213.3333282471     -1.7250750065     -1.7250750065
    379.1183471680    213.3333282471     -2.2688426971     -2.2688426971
    378.9924011230    186.6666717529     -6.8847675323     -6.8847675323
    399.2652893066    213.3333282471     -1.7250750065     -1.7250750065
    399.3702392578    240.0000000000     -1.8201426268     -1.8201426268
    379.2442932129    240.0000000000      1.7559000254      1.7559000254
    379.1183471680    213.3333282471     -2.2688426971     -2.2688426971
    399.3702392578    240.0000000000     -1.8201426268     -1.8201426268
    399.4752197266    266.6666564941     -3.0374999046     -3.0374999046
    379.3702392578    266.6666564941      2.6556549072      2.6556549072
    379.2442932129    240.0000000000      1.7559000254      1.7559000254
    399.4752197266    266.6666564941     -3.0374999046     -3.0374999046
    399.5801696777    293.3333435059     -4.5785374641     -4.5785374641
    379.4961853027    293.3333435059      0.3708974719      0.3708974719
    379.3702392578    266.6666564941      2.6556549072      2.6556549072
    399.5801696777    293.3333435059     -4.5785374641     -4.5785374641
    399.6851196289    320.0000000000     -5.8002448082     -5.8002448082
    379.6221618652    320.0000000000     -3.1296625137     -3.1296625137
    379.4961853027    293.3333435059      0.3708974719      0.3708974719
    399.6851196289    320.0000000000     -5.8002448082     -5.8002448082
    399.7900695801    346.6666564941     -6.3231773376     -6.3231773376
    379.7481079102    346.6666564941     -5.6408672333     -5.6408672333
    379.6221618652    320.0000000000     -3.1296625137     -3.1296625137
    399.7900695801    346.6666564941     -6.3231773376     -6.3231773376
    399.8950500488    373.3333435059     -6.0161056519     -6.0161056519
    379.8740539551    373.3333435059     -6.0867795944     -6.0867795944
    379.7481079102    346.6666564941     -5.6408672333     -5.6408672333
    399.8950500488    373.3333435059     -6.0161056519     -6.0161056519
    400.0000000000    400.0000000000     -6.0161056519     -6.0161056519
    380.0000000000    400.0000000000     -6.0867795944     -6.0867795944
    379.8740539551    373.3333435059     -6.0867795944     -6.0867795944
    378.1107482910      0.0000000000     -1.7872450352     -1.7872450352
    378.2366943359     26.6666698456     -1.7872450352     -1.7872450352
    357.9428100586     26.6666698456      5.6013550758      5.6013550758
    357.7958679199      0.0000000000      5.6013550758      5.6013550758
    378.2366943359     26.6666698456     -1.7872450352     -1.7872450352
    378.3626403809     53.3333282471     -0.7555427551     -0.7555427551
    358.0897521973     53.3333282471      9.4822473526      9.4822473526
    357.9428100586     26.6666698456      5.6013550758      5.6013550758
    378.3626403809     53.3333282471     -0.7555427551     -0.7555427551
    378.4885864258     80.0000000000     -1.0908327103     -1.0908327103
    358.2366943359     80.0000000000     11.2924919128     11.2924919128
    358.0897521973     53.3333282471      9.4822473526      9.4822473526
    378.4885864258     80.0000000000     -1.0908327103     -1.0908327103
    378.6145629883    106.6666717529     -3.6860077381     -3.6860077381
    358.3836364746    106.6666717529      7.9251751900      7.9251751900
    358.2366943359     80.0000000000     11.2924919128     11.2924919128
    378.6145629883    106.6666717529     -3.6860077381     -3.6860077381
    378.7405090332    133.3333282471     -7.2344079018     -7.2344079018
    358.5305786133    133.3333282471      0.4472448528      0.4472448528
    358.3836364746    106.6666717529      7.9251751900      7.9251751900
    378.7405090332    133.3333282471     -7.2344079018     -7.2344079018
    378.8664550781    160.0000000000     -8.9088954926     -8.9088954926
    358.6775207520    160.0000000000     -6.2174501419     -6.2174501419
    358.5305786133    133.3333282471      0.4472448528      0.4472448528
    378.8664550781    160.0000000000     -8.9088954926     -8.9088954926
    378.9924011230    186.6666717529     -6.8847675323     -6.8847675323
    358.8244628906    186.6666717529     -7.4462404251     -7.4462404251
    358.6775207520    160.0000000000     -6.2174501419     -6.2174501419
    378.9924011230    186.6666717529     -6.8847675323     -6.8847675323
    379.1183471680    213.3333282471     -2.2688426971     -2.2688426971
    358.9714050293    213.3333282471     -3.0368127823     -3.0368127823
    358.8244628906    186.6666717529     -7.4462404251     -7.4462404251
    379.1183471680    213.3333282471     -2.2688426971     -2.2688426971
    379.2442932129    240.0000000000      1.7559000254      1.7559000254
    359.1183471680    240.0000000000      2.7749500275      2.7749500275
    358.9714050293    213.3333282471     -3.0368127823     -3.0368127823
    379.2442932129    240.0000000000      1.7559000254      1.7559000254
    379.3702392578    266.6666564941      2.6556549072      2.6556549072
    359.2652893066    266.6666564941      5.3755226135      5.3755226135
    359.1183471680    240.0000000000      2.7749500275      2.7749500275
    379.3702392578    266.6666564941      2.6556549072      2.6556549072
    379.4961853027    293.3333435059      0.3708974719      0.3708974719
    359.4122314453    293.3333435059      3.7365474701      3.7365474701
    359.2652893066    266.6666564941      5.3755226135      5.3755226135
    379.4961853027    293.3333435059      0.3708974719      0.3708974719
    379.6221618652    320.0000000000     -3.1296625137     -3.1296625137
    359.5591735840    320.0000000000      0.4403025210      0.4403025210
    359.4122314453    293.3333435059      3.7365474701      3.7365474701