 VARIABLES= "X","Y","Z","yita"  
ZONE N=                                        3000 E=                              750 F=FEPOINT, ET=QUADRILATERAL
    500.0000000000      0.0000000000     -5.5036473274     -5.5036473274
    500.0000000000     26.6666698456     -5.5036473274     -5.5036473274
    479.7061157227     26.6666698456     -5.5036473274     -5.5036473274
    479.6851196289      0.0000000000     -5.5036473274     -5.5036473274
    500.0000000000     26.6666698456     -5.5036473274     -5.5036473274
    500.0000000000     53.3333282471     -5.5059576035     -5.5059576035
    479.7271118164     53.3333282471     -5.5059576035     -5.5059576035
    479.7061157227     26.6666698456     -5.5036473274     -5.5036473274
    500.0000000000     53.3333282471     -5.5059576035     -5.5059576035
    500.0000000000     80.0000000000     -5.4883804321     -5.4883804321
    479.7481079102     80.0000000000     -5.4883804321     -5.4883804321
    479.7271118164     53.3333282471     -5.5059576035     -5.5059576035
    500.0000000000     80.0000000000     -5.4883804321     -5.4883804321
    500.0000000000    106.6666717529     -5.4708051682     -5.4708051682
    479.7691040039    106.6666717529     -5.4708051682     -5.4708051682
    479.7481079102     80.0000000000     -5.4883804321     -5.4883804321
    500.0000000000    106.6666717529     -5.4708051682     -5.4708051682
    500.0000000000    133.3333282471     -5.4717974663     -5.4717974663
    479.7900695801    133.3333282471     -5.4717974663     -5.4717974663
    479.7691040039    106.6666717529     -5.4708051682     -5.4708051682
    500.0000000000    133.3333282471     -5.4717974663     -5.4717974663
    500.0000000000    160.0000000000     -5.4542751312     -5.4542751312
    479.8110656738    160.0000000000     -5.4542751312     -5.4542751312
    479.7900695801    133.3333282471     -5.4717974663     -5.4717974663
    500.0000000000    160.0000000000     -5.4542751312     -5.4542751312
    500.0000000000    186.6666717529     -5.4331278801     -5.4331278801
    479.8320617676    186.6666717529     -5.4331278801     -5.4331278801
    479.8110656738    160.0000000000     -5.4542751312     -5.4542751312
    500.0000000000    186.6666717529     -5.4331278801     -5.4331278801
    500.0000000000    213.3333282471     -5.4283399582     -5.4283399582
    479.8530578613    213.3333282471     -5.4283399582     -5.4283399582
    479.8320617676    186.6666717529     -5.4331278801     -5.4331278801
    500.0000000000    213.3333282471     -5.4283399582     -5.4283399582
    500.0000000000    240.0000000000     -5.4201378822     -5.4201378822
    479.8740539551    240.0000000000     -5.4201378822     -5.4201378822
    479.8530578613    213.3333282471     -5.4283399582     -5.4283399582
    500.0000000000    240.0000000000     -5.4201378822     -5.4201378822
    500.0000000000    266.6666564941     -5.4125747681     -5.4125747681
    479.8950500488    266.6666564941     -5.4125747681     -5.4125747681
    479.8740539551    240.0000000000     -5.4201378822     -5.4201378822
    500.0000000000    266.6666564941     -5.4125747681     -5.4125747681
    500.0000000000    293.3333435059     -5.4094700813     -5.4094700813
    479.9160156250    293.3333435059     -5.4094700813     -5.4094700813
    479.8950500488    266.6666564941     -5.4125747681     -5.4125747681
    500.0000000000    293.3333435059     -5.4094700813     -5.4094700813
    500.0000000000    320.0000000000     -5.3977079391     -5.3977079391
    479.9370422363    320.0000000000     -5.3977079391     -5.3977079391
    479.9160156250    293.3333435059     -5.4094700813     -5.4094700813
    500.0000000000    320.0000000000     -5.3977079391     -5.3977079391
    500.0000000000    346.6666564941     -5.3880972862     -5.3880972862
    479.9580078125    346.6666564941     -5.3880972862     -5.3880972862
    479.9370422363    320.0000000000     -5.3977079391     -5.3977079391
    500.0000000000    346.6666564941     -5.3880972862     -5.3880972862
    500.0000000000    373.3333435059     -5.3844952583     -5.3844952583
    479.9790039062    373.3333435059     -5.3844952583     -5.3844952583
    479.9580078125    346.6666564941     -5.3880972862     -5.3880972862
    500.0000000000    373.3333435059     -5.3844952583     -5.3844952583
    500.0000000000    400.0000000000     -5.3844952583     -5.3844952583
    480.0000000000    400.0000000000     -5.3844952583     -5.3844952583
    479.9790039062    373.3333435059     -5.3844952583     -5.3844952583
    479.6851196289      0.0000000000     -5.5036473274     -5.5036473274
    479.7061157227     26.6666698456     -5.5036473274     -5.5036473274
    459.4122314453     26.6666698456     -2.6906850338     -2.6906850338
    459.3702392578      0.0000000000     -2.6906850338     -2.6906850338
    479.7061157227     26.6666698456     -5.5036473274     -5.5036473274
    479.7271118164     53.3333282471     -5.5059576035     -5.5059576035
    459.4542236328     53.3333282471     -2.6952874660     -2.6952874660
    459.4122314453     26.6666698456     -2.6906850338     -2.6906850338
    479.7271118164     53.3333282471     -5.5059576035     -5.5059576035
    479.7481079102     80.0000000000     -5.4883804321     -5.4883804321
    459.4961853027     80.0000000000     -2.6892797947     -2.6892797947
    459.4542236328     53.3333282471     -2.6952874660     -2.6952874660
    479.7481079102     80.0000000000     -5.4883804321     -5.4883804321
    479.7691040039    106.6666717529     -5.4708051682     -5.4708051682
    459.5381774902    106.6666717529     -2.6708674431     -2.6708674431
    459.4961853027     80.0000000000     -2.6892797947     -2.6892797947
    479.7691040039    106.6666717529     -5.4708051682     -5.4708051682
    479.7900695801    133.3333282471     -5.4717974663     -5.4717974663
    459.5801696777    133.3333282471     -2.6481175423     -2.6481175423
    459.5381774902    106.6666717529     -2.6708674431     -2.6708674431
    479.7900695801    133.3333282471     -5.4717974663     -5.4717974663
    479.8110656738    160.0000000000     -5.4542751312     -5.4542751312
    459.6221618652    160.0000000000     -2.6344273090     -2.6344273090
    459.5801696777    133.3333282471     -2.6481175423     -2.6481175423
    479.8110656738    160.0000000000     -5.4542751312     -5.4542751312
    479.8320617676    186.6666717529     -5.4331278801     -5.4331278801
    459.6641235352    186.6666717529     -2.6419100761     -2.6419100761
    459.6221618652    160.0000000000     -2.6344273090     -2.6344273090
    479.8320617676    186.6666717529     -5.4331278801     -5.4331278801
    479.8530578613    213.3333282471     -5.4283399582     -5.4283399582
    459.7061157227    213.3333282471     -2.6700625420     -2.6700625420
    459.6641235352    186.6666717529     -2.6419100761     -2.6419100761
    479.8530578613    213.3333282471     -5.4283399582     -5.4283399582
    479.8740539551    240.0000000000     -5.4201378822     -5.4201378822
    459.7481079102    240.0000000000     -2.7032699585     -2.7032699585
    459.7061157227    213.3333282471     -2.6700625420     -2.6700625420
    479.8740539551    240.0000000000     -5.4201378822     -5.4201378822
    479.8950500488    266.6666564941     -5.4125747681     -5.4125747681
    459.7900695801    266.6666564941     -2.7248401642     -2.7248401642
    459.7481079102    240.0000000000     -2.7032699585     -2.7032699585
    479.8950500488    266.6666564941     -5.4125747681     -5.4125747681
    479.9160156250    293.3333435059     -5.4094700813     -5.4094700813
    459.8320617676    293.3333435059     -2.7279624939     -2.7279624939
    459.7900695801    266.6666564941     -2.7248401642     -2.7248401642
    479.9160156250    293.3333435059     -5.4094700813     -5.4094700813
    479.9370422363    320.0000000000     -5.3977079391     -5.3977079391
    459.8740539551    320.0000000000     -2.7174024582     -2.7174024582
    459.8320617676    293.3333435059     -2.7279624939     -2.7279624939
    479.9370422363    320.0000000000     -5.3977079391     -5.3977079391
    479.9580078125    346.6666564941     -5.3880972862     -5.3880972862
    459.9160156250    346.6666564941     -2.7053749561     -2.7053749561
    459.8740539551    320.0000000000     -2.7174024582     -2.7174024582
    479.9580078125    346.6666564941     -5.3880972862     -5.3880972862
    479.9790039062    373.3333435059     -5.3844952583     -5.3844952583
    459.9580078125    373.3333435059     -2.6935424805     -2.6935424805
    459.9160156250    346.6666564941     -2.7053749561     -2.7053749561
    479.9790039062    373.3333435059     -5.3844952583     -5.3844952583
    480.0000000000    400.0000000000     -5.3844952583     -5.3844952583
    460.0000000000    400.0000000000     -2.6935424805     -2.6935424805
    459.9580078125    373.3333435059     -2.6935424805     -2.6935424805
    459.3702392578      0.0000000000     -2.6906850338     -2.6906850338
    459.4122314453     26.6666698456     -2.6906850338     -2.6906850338
    439.1183471680     26.6666698456      0.3717174828      0.3717174828
    439.0553588867      0.0000000000      0.3717174828      0.3717174828
    459.4122314453     26.6666698456     -2.6906850338     -2.6906850338
    459.4542236328     53.3333282471     -2.6952874660     -2.6952874660
    439.1813049316     53.3333282471      0.3742175102      0.3742175102
    439.1183471680     26.6666698456      0.3717174828      0.3717174828
    459.4542236328     53.3333282471     -2.6952874660     -2.6952874660
    459.4961853027     80.0000000000     -2.6892797947     -2.6892797947
    439.2442932129     80.0000000000      0.3531949818      0.3531949818
    439.1813049316     53.3333282471      0.3742175102      0.3742175102
    459.4961853027     80.0000000000     -2.6892797947     -2.6892797947
    459.5381774902    106.6666717529     -2.6708674431     -2.6708674431
    439.3072814941    106.6666717529      0.2947450280      0.2947450280
    439.2442932129     80.0000000000      0.3531949818      0.3531949818
    459.5381774902    106.6666717529     -2.6708674431     -2.6708674431
    459.5801696777    133.3333282471     -2.6481175423     -2.6481175423
    439.3702392578    133.3333282471      0.2200050056      0.2200050056
    439.3072814941    106.6666717529      0.2947450280      0.2947450280
    459.5801696777    133.3333282471     -2.6481175423     -2.6481175423
    459.6221618652    160.0000000000     -2.6344273090     -2.6344273090
    439.4332275391    160.0000000000      0.1769475341      0.1769475341
    439.3702392578    133.3333282471      0.2200050056      0.2200050056
    459.6221618652    160.0000000000     -2.6344273090     -2.6344273090
    459.6641235352    186.6666717529     -2.6419100761     -2.6419100761
    439.4961853027    186.6666717529      0.2003774941      0.2003774941
    439.4332275391    160.0000000000      0.1769475341      0.1769475341
    459.6641235352    186.6666717529     -2.6419100761     -2.6419100761
    459.7061157227    213.3333282471     -2.6700625420     -2.6700625420
    439.5591735840    213.3333282471      0.2782374918      0.2782374918
    439.4961853027    186.6666717529      0.2003774941      0.2003774941
    459.7061157227    213.3333282471     -2.6700625420     -2.6700625420
    459.7481079102    240.0000000000     -2.7032699585     -2.7032699585
    439.6221618652    240.0000000000      0.3561899960      0.3561899960
    439.5591735840    213.3333282471      0.2782374918      0.2782374918
    459.7481079102    240.0000000000     -2.7032699585     -2.7032699585
    459.7900695801    266.6666564941     -2.7248401642     -2.7248401642
    439.6851196289    266.6666564941      0.3799074292      0.3799074292
    439.6221618652    240.0000000000      0.3561899960      0.3561899960
    459.7900695801    266.6666564941     -2.7248401642     -2.7248401642
    459.8320617676    293.3333435059     -2.7279624939     -2.7279624939
    439.7481079102    293.3333435059      0.3378149867      0.3378149867
    439.6851196289    266.6666564941      0.3799074292      0.3799074292
    459.8320617676    293.3333435059     -2.7279624939     -2.7279624939
    459.8740539551    320.0000000000     -2.7174024582     -2.7174024582
    439.8110656738    320.0000000000      0.2638749778      0.2638749778
    439.7481079102    293.3333435059      0.3378149867      0.3378149867
    459.8740539551    320.0000000000     -2.7174024582     -2.7174024582
    459.9160156250    346.6666564941     -2.7053749561     -2.7053749561
    439.8740539551    346.6666564941      0.2026474774      0.2026474774
    439.8110656738    320.0000000000      0.2638749778      0.2638749778
    459.9160156250    346.6666564941     -2.7053749561     -2.7053749561
    459.9580078125    373.3333435059     -2.6935424805     -2.6935424805
    439.9370422363    373.3333435059      0.1846999526      0.1846999526
    439.8740539551    346.6666564941      0.2026474774      0.2026474774
    459.9580078125    373.3333435059     -2.6935424805     -2.6935424805
    460.0000000000    400.0000000000     -2.6935424805     -2.6935424805
    440.0000000000    400.0000000000      0.1846999526      0.1846999526
    439.9370422363    373.3333435059      0.1846999526      0.1846999526
    439.0553588867      0.0000000000      0.3717174828      0.3717174828
    439.1183471680     26.6666698456      0.3717174828      0.3717174828
    418.8244628906     26.6666698456      2.7476499081      2.7476499081
    418.7405090332      0.0000000000      2.7476499081      2.7476499081
    439.1183471680     26.6666698456      0.3717174828      0.3717174828
    439.1813049316     53.3333282471      0.3742175102      0.3742175102
    418.9084167480     53.3333282471      2.6141848564      2.6141848564
    418.8244628906     26.6666698456      2.7476499081      2.7476499081
    439.1813049316     53.3333282471      0.3742175102      0.3742175102
    439.2442932129     80.0000000000      0.3531949818      0.3531949818
    418.9924011230     80.0000000000      2.8678774834      2.8678774834
    418.9084167480     53.3333282471      2.6141848564      2.6141848564
    439.2442932129     80.0000000000      0.3531949818      0.3531949818
    439.3072814941    106.6666717529      0.2947450280      0.2947450280
    419.0763549805    106.6666717529      3.7073597908      3.7073597908
    418.9924011230     80.0000000000      2.8678774834      2.8678774834
    439.3072814941    106.6666717529      0.2947450280      0.2947450280
    439.3702392578    133.3333282471      0.2200050056      0.2200050056
    419.1603393555    133.3333282471      4.8193125725      4.8193125725
    419.0763549805    106.6666717529      3.7073597908      3.7073597908
    439.3702392578    133.3333282471      0.2200050056      0.2200050056
    439.4332275391    160.0000000000      0.1769475341      0.1769475341
    419.2442932129    160.0000000000      5.5021696091      5.5021696091
    419.1603393555    133.3333282471      4.8193125725      4.8193125725
    439.4332275391    160.0000000000      0.1769475341      0.1769475341
    439.4961853027    186.6666717529      0.2003774941      0.2003774941
    419.3282775879    186.6666717529      5.2145299911      5.2145299911
    419.2442932129    160.0000000000      5.5021696091      5.5021696091
    439.4961853027    186.6666717529      0.2003774941      0.2003774941
    439.5591735840    213.3333282471      0.2782374918      0.2782374918
    419.4122314453    213.3333282471      4.0636148453      4.0636148453
    419.3282775879    186.6666717529      5.2145299911      5.2145299911
    439.5591735840    213.3333282471      0.2782374918      0.2782374918
    439.6221618652    240.0000000000      0.3561899960      0.3561899960
    419.4961853027    240.0000000000      2.7803349495      2.7803349495
    419.4122314453    213.3333282471      4.0636148453      4.0636148453
    439.6221618652    240.0000000000      0.3561899960      0.3561899960
    439.6851196289    266.6666564941      0.3799074292      0.3799074292
    419.5801696777    266.6666564941      2.1535902023      2.1535902023
    419.4961853027    240.0000000000      2.7803349495      2.7803349495
    439.6851196289    266.6666564941      0.3799074292      0.3799074292
    439.7481079102    293.3333435059      0.3378149867      0.3378149867
    419.6641235352    293.3333435059      2.4308075905      2.4308075905
    419.5801696777    266.6666564941      2.1535902023      2.1535902023
    439.7481079102    293.3333435059      0.3378149867      0.3378149867
    439.8110656738    320.0000000000      0.2638749778      0.2638749778
    419.7481079102    320.0000000000      3.2294173241      3.2294173241
    419.6641235352    293.3333435059      2.4308075905      2.4308075905
    439.8110656738    320.0000000000      0.2638749778      0.2638749778
    439.8740539551    346.6666564941      0.2026474774      0.2026474774
    419.8320617676    346.6666564941      3.9533448219      3.9533448219
    419.7481079102    320.0000000000      3.2294173241      3.2294173241
    439.8740539551    346.6666564941      0.2026474774      0.2026474774
    439.9370422363    373.3333435059      0.1846999526      0.1846999526
    419.9160156250    373.3333435059      4.2483849525      4.2483849525
    419.8320617676    346.6666564941      3.9533448219      3.9533448219
    439.9370422363    373.3333435059      0.1846999526      0.1846999526
    440.0000000000    400.0000000000      0.1846999526      0.1846999526
    420.0000000000    400.0000000000      4.2483849525      4.2483849525
    419.9160156250    373.3333435059      4.2483849525      4.2483849525
    418.7405090332      0.0000000000      2.7476499081      2.7476499081
    418.8244628906     26.6666698456      2.7476499081      2.7476499081
    398.5305786133     26.6666698456      2.2295401096      2.2295401096
    398.4256286621      0.0000000000      2.2295401096      2.2295401096
    418.8244628906     26.6666698456      2.7476499081      2.7476499081
    418.9084167480     53.3333282471      2.6141848564      2.6141848564
    398.6355285645     53.3333282471      1.3745799065      1.3745799065
    398.5305786133     26.6666698456      2.2295401096      2.2295401096
    418.9084167480     53.3333282471      2.6141848564      2.6141848564
    418.9924011230     80.0000000000      2.8678774834      2.8678774834
    398.7405090332     80.0000000000      1.8161876202      1.8161876202
    398.6355285645     53.3333282471      1.3745799065      1.3745799065
    418.9924011230     80.0000000000      2.8678774834      2.8678774834
    419.0763549805    106.6666717529      3.7073597908      3.7073597908
    398.8454589844    106.6666717529      4.4949274063      4.4949274063
    398.7405090332     80.0000000000      1.8161876202      1.8161876202
    419.0763549805    106.6666717529      3.7073597908      3.7073597908
    419.1603393555    133.3333282471      4.8193125725      4.8193125725
    398.9504089355    133.3333282471      8.5888576508      8.5888576508
    398.8454589844    106.6666717529      4.4949274063      4.4949274063
    419.1603393555    133.3333282471      4.8193125725      4.8193125725
    419.2442932129    160.0000000000      5.5021696091      5.5021696091
    399.0553588867    160.0000000000     11.8348674774     11.8348674774
    398.9504089355    133.3333282471      8.5888576508      8.5888576508
    419.2442932129    160.0000000000      5.5021696091      5.5021696091
    419.3282775879    186.6666717529      5.2145299911      5.2145299911
    399.1603393555    186.6666717529     12.1956148148     12.1956148148
    399.0553588867    160.0000000000     11.8348674774     11.8348674774
    419.3282775879    186.6666717529      5.2145299911      5.2145299911
    419.4122314453    213.3333282471      4.0636148453      4.0636148453
    399.2652893066    213.3333282471      9.5092477798      9.5092477798
    399.1603393555    186.6666717529     12.1956148148     12.1956148148
    419.4122314453    213.3333282471      4.0636148453      4.0636148453
    419.4961853027    240.0000000000      2.7803349495      2.7803349495
    399.3702392578    240.0000000000      5.7202224731      5.7202224731
    399.2652893066    213.3333282471      9.5092477798      9.5092477798
    419.4961853027    240.0000000000      2.7803349495      2.7803349495
    419.5801696777    266.6666564941      2.1535902023      2.1535902023
    399.4752197266    266.6666564941      3.3486528397      3.3486528397
    399.3702392578    240.0000000000      5.7202224731      5.7202224731
    419.5801696777    266.6666564941      2.1535902023      2.1535902023
    419.6641235352    293.3333435059      2.4308075905      2.4308075905
    399.5801696777    293.3333435059      3.5166573524      3.5166573524
    399.4752197266    266.6666564941      3.3486528397      3.3486528397
    419.6641235352    293.3333435059      2.4308075905      2.4308075905
    419.7481079102    320.0000000000      3.2294173241      3.2294173241
    399.6851196289    320.0000000000      5.3896875381      5.3896875381
    399.5801696777    293.3333435059      3.5166573524      3.5166573524
    419.7481079102    320.0000000000      3.2294173241      3.2294173241
    419.8320617676    346.6666564941      3.9533448219      3.9533448219
    399.7900695801    346.6666564941      7.3290672302      7.3290672302
    399.6851196289    320.0000000000      5.3896875381      5.3896875381
    419.8320617676    346.6666564941      3.9533448219      3.9533448219
    419.9160156250    373.3333435059      4.2483849525      4.2483849525
    399.8950500488    373.3333435059      8.3035125732      8.3035125732
    399.7900695801    346.6666564941      7.3290672302      7.3290672302
    419.9160156250    373.3333435059      4.2483849525      4.2483849525
    420.0000000000    400.0000000000      4.2483849525      4.2483849525
    400.0000000000    400.0000000000      8.3035125732      8.3035125732
    399.8950500488    373.3333435059      8.3035125732      8.3035125732
    398.4256286621      0.0000000000      2.2295401096      2.2295401096
    398.5305786133     26.6666698456      2.2295401096      2.2295401096
    378.2366943359     26.6666698456      3.8381547928      3.8381547928
    378.1107482910      0.0000000000      3.8381547928      3.8381547928
    398.5305786133     26.6666698456      2.2295401096      2.2295401096
    398.6355285645     53.3333282471      1.3745799065      1.3745799065
    378.3626403809     53.3333282471      2.4173250198      2.4173250198
    378.2366943359     26.6666698456      3.8381547928      3.8381547928
    398.6355285645     53.3333282471      1.3745799065      1.3745799065
    398.7405090332     80.0000000000      1.8161876202      1.8161876202
    378.4885864258     80.0000000000      1.7847125530      1.7847125530
    378.3626403809     53.3333282471      2.4173250198      2.4173250198
    398.7405090332     80.0000000000      1.8161876202      1.8161876202
    398.8454589844    106.6666717529      4.4949274063      4.4949274063
    378.6145629883    106.6666717529      2.9863376617      2.9863376617
    378.4885864258     80.0000000000      1.7847125530      1.7847125530
    398.8454589844    106.6666717529      4.4949274063      4.4949274063
    398.9504089355    133.3333282471      8.5888576508      8.5888576508
    378.7405090332    133.3333282471      5.9178500175      5.9178500175
    378.6145629883    106.6666717529      2.9863376617      2.9863376617
    398.9504089355    133.3333282471      8.5888576508      8.5888576508
    399.0553588867    160.0000000000     11.8348674774     11.8348674774
    378.8664550781    160.0000000000      9.3911075592      9.3911075592
    378.7405090332    133.3333282471      5.9178500175      5.9178500175
    399.0553588867    160.0000000000     11.8348674774     11.8348674774
    399.1603393555    186.6666717529     12.1956148148     12.1956148148
    378.9924011230    186.6666717529     11.7737178802     11.7737178802
    378.8664550781    160.0000000000      9.3911075592      9.3911075592
    399.1603393555    186.6666717529     12.1956148148     12.1956148148
    399.2652893066    213.3333282471      9.5092477798      9.5092477798
    379.1183471680    213.3333282471     12.0054826736     12.0054826736
    378.9924011230    186.6666717529     11.7737178802     11.7737178802
    399.2652893066    213.3333282471      9.5092477798      9.5092477798
    399.3702392578    240.0000000000      5.7202224731      5.7202224731
    379.2442932129    240.0000000000     10.3443794250     10.3443794250
    379.1183471680    213.3333282471     12.0054826736     12.0054826736
    399.3702392578    240.0000000000      5.7202224731      5.7202224731
    399.4752197266    266.6666564941      3.3486528397      3.3486528397
    379.3702392578    266.6666564941      8.1327524185      8.1327524185
    379.2442932129    240.0000000000     10.3443794250     10.3443794250
    399.4752197266    266.6666564941      3.3486528397      3.3486528397
    399.5801696777    293.3333435059      3.5166573524      3.5166573524
    379.4961853027    293.3333435059      6.6754255295      6.6754255295
    379.3702392578    266.6666564941      8.1327524185      8.1327524185
    399.5801696777    293.3333435059      3.5166573524      3.5166573524
    399.6851196289    320.0000000000      5.3896875381      5.3896875381
    379.6221618652    320.0000000000      6.3405175209      6.3405175209
    379.4961853027    293.3333435059      6.6754255295      6.6754255295
    399.6851196289    320.0000000000      5.3896875381      5.3896875381
    399.7900695801    346.6666564941      7.3290672302      7.3290672302
    379.7481079102    346.6666564941      6.7502498627      6.7502498627
    379.6221618652    320.0000000000      6.3405175209      6.3405175209
    399.7900695801    346.6666564941      7.3290672302      7.3290672302
    399.8950500488    373.3333435059      8.3035125732      8.3035125732
    379.8740539551    373.3333435059      7.5058646202      7.5058646202
    379.7481079102    346.6666564941      6.7502498627      6.7502498627
    399.8950500488    373.3333435059      8.3035125732      8.3035125732
    400.0000000000    400.0000000000      8.3035125732      8.3035125732
    380.0000000000    400.0000000000      7.5058646202      7.5058646202
    379.8740539551    373.3333435059      7.5058646202      7.5058646202
    378.1107482910      0.0000000000      3.8381547928      3.8381547928
    378.2366943359     26.6666698456      3.8381547928      3.8381547928
    357.9428100586     26.6666698456     11.8574428558     11.8574428558
    357.7958679199      0.0000000000     11.8574428558     11.8574428558
    378.2366943359     26.6666698456      3.8381547928      3.8381547928
    378.3626403809     53.3333282471      2.4173250198      2.4173250198
    358.0897521973     53.3333282471     12.2984046936     12.2984046936
    357.9428100586     26.6666698456     11.8574428558     11.8574428558
    378.3626403809     53.3333282471      2.4173250198      2.4173250198
    378.4885864258     80.0000000000      1.7847125530      1.7847125530
    358.2366943359     80.0000000000     11.3189277649     11.3189277649
    358.0897521973     53.3333282471     12.2984046936     12.2984046936
    378.4885864258     80.0000000000      1.7847125530      1.7847125530
    378.6145629883    106.6666717529      2.9863376617      2.9863376617
    358.3836364746    106.6666717529      8.0455350876      8.0455350876
    358.2366943359     80.0000000000     11.3189277649     11.3189277649
    378.6145629883    106.6666717529      2.9863376617      2.9863376617
    378.7405090332    133.3333282471      5.9178500175      5.9178500175
    358.5305786133    133.3333282471      3.8037424088      3.8037424088
    358.3836364746    106.6666717529      8.0455350876      8.0455350876
    378.7405090332    133.3333282471      5.9178500175      5.9178500175
    378.8664550781    160.0000000000      9.3911075592      9.3911075592
    358.6775207520    160.0000000000      1.6099849939      1.6099849939
    358.5305786133    133.3333282471      3.8037424088      3.8037424088
    378.8664550781    160.0000000000      9.3911075592      9.3911075592
    378.9924011230    186.6666717529     11.7737178802     11.7737178802
    358.8244628906    186.6666717529      3.4951953888      3.4951953888
    358.6775207520    160.0000000000      1.6099849939      1.6099849939
    378.9924011230    186.6666717529     11.7737178802     11.7737178802
    379.1183471680    213.3333282471     12.0054826736     12.0054826736
    358.9714050293    213.3333282471      8.4044895172      8.4044895172
    358.8244628906    186.6666717529      3.4951953888      3.4951953888
    379.1183471680    213.3333282471     12.0054826736     12.0054826736
    379.2442932129    240.0000000000     10.3443794250     10.3443794250
    359.1183471680    240.0000000000     12.8253898621     12.8253898621
    358.9714050293    213.3333282471      8.4044895172      8.4044895172
    379.2442932129    240.0000000000     10.3443794250     10.3443794250
    379.3702392578    266.6666564941      8.1327524185      8.1327524185
    359.2652893066    266.6666564941     13.7149429321     13.7149429321
    359.1183471680    240.0000000000     12.8253898621     12.8253898621
    379.3702392578    266.6666564941      8.1327524185      8.1327524185
    379.4961853027    293.3333435059      6.6754255295      6.6754255295
    359.4122314453    293.3333435059     10.9644727707     10.9644727707
    359.2652893066    266.6666564941     13.7149429321     13.7149429321
    379.4961853027    293.3333435059      6.6754255295      6.6754255295
    379.6221618652    320.0000000000      6.3405175209      6.3405175209
    359.5591735840    320.0000000000      7.0273427963      7.0273427963
    359.4122314453    293.3333435059     10.9644727707     10.9644727707