 VARIABLES= "X","Y","Z","yita"  
ZONE N=                                        3000 E=                              750 F=FEPOINT, ET=QUADRILATERAL
    500.0000000000      0.0000000000      7.0356602669      7.0356602669
    500.0000000000     26.6666698456      7.0356602669      7.0356602669
    479.7061157227     26.6666698456      7.0356602669      7.0356602669
    479.6851196289      0.0000000000      7.0356602669      7.0356602669
    500.0000000000     26.6666698456      7.0356602669      7.0356602669
    500.0000000000     53.3333282471      7.0356750488      7.0356750488
    479.7271118164     53.3333282471      7.0356750488      7.0356750488
    479.7061157227     26.6666698456      7.0356602669      7.0356602669
    500.0000000000     53.3333282471      7.0356750488      7.0356750488
    500.0000000000     80.0000000000      7.0340628624      7.0340628624
    479.7481079102     80.0000000000      7.0340628624      7.0340628624
    479.7271118164     53.3333282471      7.0356750488      7.0356750488
    500.0000000000     80.0000000000      7.0340628624      7.0340628624
    500.0000000000    106.6666717529      7.0344953537      7.0344953537
    479.7691040039    106.6666717529      7.0344953537      7.0344953537
    479.7481079102     80.0000000000      7.0340628624      7.0340628624
    500.0000000000    106.6666717529      7.0344953537      7.0344953537
    500.0000000000    133.3333282471      7.0379648209      7.0379648209
    479.7900695801    133.3333282471      7.0379648209      7.0379648209
    479.7691040039    106.6666717529      7.0344953537      7.0344953537
    500.0000000000    133.3333282471      7.0379648209      7.0379648209
    500.0000000000    160.0000000000      7.0270128250      7.0270128250
    479.8110656738    160.0000000000      7.0270128250      7.0270128250
    479.7900695801    133.3333282471      7.0379648209      7.0379648209
    500.0000000000    160.0000000000      7.0270128250      7.0270128250
    500.0000000000    186.6666717529      7.0153975487      7.0153975487
    479.8320617676    186.6666717529      7.0153975487      7.0153975487
    479.8110656738    160.0000000000      7.0270128250      7.0270128250
    500.0000000000    186.6666717529      7.0153975487      7.0153975487
    500.0000000000    213.3333282471      7.0167026520      7.0167026520
    479.8530578613    213.3333282471      7.0167026520      7.0167026520
    479.8320617676    186.6666717529      7.0153975487      7.0153975487
    500.0000000000    213.3333282471      7.0167026520      7.0167026520
    500.0000000000    240.0000000000      7.0056524277      7.0056524277
    479.8740539551    240.0000000000      7.0056524277      7.0056524277
    479.8530578613    213.3333282471      7.0167026520      7.0167026520
    500.0000000000    240.0000000000      7.0056524277      7.0056524277
    500.0000000000    266.6666564941      6.9919228554      6.9919228554
    479.8950500488    266.6666564941      6.9919228554      6.9919228554
    479.8740539551    240.0000000000      7.0056524277      7.0056524277
    500.0000000000    266.6666564941      6.9919228554      6.9919228554
    500.0000000000    293.3333435059      6.9886674881      6.9886674881
    479.9160156250    293.3333435059      6.9886674881      6.9886674881
    479.8950500488    266.6666564941      6.9919228554      6.9919228554
    500.0000000000    293.3333435059      6.9886674881      6.9886674881
    500.0000000000    320.0000000000      6.9747047424      6.9747047424
    479.9370422363    320.0000000000      6.9747047424      6.9747047424
    479.9160156250    293.3333435059      6.9886674881      6.9886674881
    500.0000000000    320.0000000000      6.9747047424      6.9747047424
    500.0000000000    346.6666564941      6.9653029442      6.9653029442
    479.9580078125    346.6666564941      6.9653029442      6.9653029442
    479.9370422363    320.0000000000      6.9747047424      6.9747047424
    500.0000000000    346.6666564941      6.9653029442      6.9653029442
    500.0000000000    373.3333435059      6.9660201073      6.9660201073
    479.9790039062    373.3333435059      6.9660201073      6.9660201073
    479.9580078125    346.6666564941      6.9653029442      6.9653029442
    500.0000000000    373.3333435059      6.9660201073      6.9660201073
    500.0000000000    400.0000000000      6.9660201073      6.9660201073
    480.0000000000    400.0000000000      6.9660201073      6.9660201073
    479.9790039062    373.3333435059      6.9660201073      6.9660201073
    479.6851196289      0.0000000000      7.0356602669      7.0356602669
    479.7061157227     26.6666698456      7.0356602669      7.0356602669
    459.4122314453     26.6666698456      8.5769348145      8.5769348145
    459.3702392578      0.0000000000      8.5769348145      8.5769348145
    479.7061157227     26.6666698456      7.0356602669      7.0356602669
    479.7271118164     53.3333282471      7.0356750488      7.0356750488
    459.4542236328     53.3333282471      8.5767173767      8.5767173767
    459.4122314453     26.6666698456      8.5769348145      8.5769348145
    479.7271118164     53.3333282471      7.0356750488      7.0356750488
    479.7481079102     80.0000000000      7.0340628624      7.0340628624
    459.4961853027     80.0000000000      8.5744848251      8.5744848251
    459.4542236328     53.3333282471      8.5767173767      8.5767173767
    479.7481079102     80.0000000000      7.0340628624      7.0340628624
    479.7691040039    106.6666717529      7.0344953537      7.0344953537
    459.5381774902    106.6666717529      8.5670070648      8.5670070648
    459.4961853027     80.0000000000      8.5744848251      8.5744848251
    479.7691040039    106.6666717529      7.0344953537      7.0344953537
    479.7900695801    133.3333282471      7.0379648209      7.0379648209
    459.5801696777    133.3333282471      8.5519552231      8.5519552231
    459.5381774902    106.6666717529      8.5670070648      8.5670070648
    479.7900695801    133.3333282471      7.0379648209      7.0379648209
    479.8110656738    160.0000000000      7.0270128250      7.0270128250
    459.6221618652    160.0000000000      8.5302181244      8.5302181244
    459.5801696777    133.3333282471      8.5519552231      8.5519552231
    479.8110656738    160.0000000000      7.0270128250      7.0270128250
    479.8320617676    186.6666717529      7.0153975487      7.0153975487
    459.6641235352    186.6666717529      8.5074996948      8.5074996948
    459.6221618652    160.0000000000      8.5302181244      8.5302181244
    479.8320617676    186.6666717529      7.0153975487      7.0153975487
    479.8530578613    213.3333282471      7.0167026520      7.0167026520
    459.7061157227    213.3333282471      8.4912223816      8.4912223816
    459.6641235352    186.6666717529      8.5074996948      8.5074996948
    479.8530578613    213.3333282471      7.0167026520      7.0167026520
    479.8740539551    240.0000000000      7.0056524277      7.0056524277
    459.7481079102    240.0000000000      8.4853849411      8.4853849411
    459.7061157227    213.3333282471      8.4912223816      8.4912223816
    479.8740539551    240.0000000000      7.0056524277      7.0056524277
    479.8950500488    266.6666564941      6.9919228554      6.9919228554
    459.7900695801    266.6666564941      8.4896574020      8.4896574020
    459.7481079102    240.0000000000      8.4853849411      8.4853849411
    479.8950500488    266.6666564941      6.9919228554      6.9919228554
    479.9160156250    293.3333435059      6.9886674881      6.9886674881
    459.8320617676    293.3333435059      8.4993753433      8.4993753433
    459.7900695801    266.6666564941      8.4896574020      8.4896574020
    479.9160156250    293.3333435059      6.9886674881      6.9886674881
    479.9370422363    320.0000000000      6.9747047424      6.9747047424
    459.8740539551    320.0000000000      8.5074901581      8.5074901581
    459.8320617676    293.3333435059      8.4993753433      8.4993753433
    479.9370422363    320.0000000000      6.9747047424      6.9747047424
    479.9580078125    346.6666564941      6.9653029442      6.9653029442
    459.9160156250    346.6666564941      8.5097446442      8.5097446442
    459.8740539551    320.0000000000      8.5074901581      8.5074901581
    479.9580078125    346.6666564941      6.9653029442      6.9653029442
    479.9790039062    373.3333435059      6.9660201073      6.9660201073
    459.9580078125    373.3333435059      8.5014553070      8.5014553070
    459.9160156250    346.6666564941      8.5097446442      8.5097446442
    479.9790039062    373.3333435059      6.9660201073      6.9660201073
    480.0000000000    400.0000000000      6.9660201073      6.9660201073
    460.0000000000    400.0000000000      8.5014553070      8.5014553070
    459.9580078125    373.3333435059      8.5014553070      8.5014553070
    459.3702392578      0.0000000000      8.5769348145      8.5769348145
    459.4122314453     26.6666698456      8.5769348145      8.5769348145
    439.1183471680     26.6666698456      9.0741357803      9.0741357803
    439.0553588867      0.0000000000      9.0741357803      9.0741357803
    459.4122314453     26.6666698456      8.5769348145      8.5769348145
    459.4542236328     53.3333282471      8.5767173767      8.5767173767
    439.1813049316     53.3333282471      9.0594654083      9.0594654083
    439.1183471680     26.6666698456      9.0741357803      9.0741357803
    459.4542236328     53.3333282471      8.5767173767      8.5767173767
    459.4961853027     80.0000000000      8.5744848251      8.5744848251
    439.2442932129     80.0000000000      9.0623149872      9.0623149872
    439.1813049316     53.3333282471      9.0594654083      9.0594654083
    459.4961853027     80.0000000000      8.5744848251      8.5744848251
    459.5381774902    106.6666717529      8.5670070648      8.5670070648
    439.3072814941    106.6666717529      9.0992155075      9.0992155075
    439.2442932129     80.0000000000      9.0623149872      9.0623149872
    459.5381774902    106.6666717529      8.5670070648      8.5670070648
    459.5801696777    133.3333282471      8.5519552231      8.5519552231
    439.3702392578    133.3333282471      9.1676177979      9.1676177979
    439.3072814941    106.6666717529      9.0992155075      9.0992155075
    459.5801696777    133.3333282471      8.5519552231      8.5519552231
    459.6221618652    160.0000000000      8.5302181244      8.5302181244
    439.4332275391    160.0000000000      9.2437019348      9.2437019348
    439.3702392578    133.3333282471      9.1676177979      9.1676177979
    459.6221618652    160.0000000000      8.5302181244      8.5302181244
    459.6641235352    186.6666717529      8.5074996948      8.5074996948
    439.4961853027    186.6666717529      9.2953376770      9.2953376770
    439.4332275391    160.0000000000      9.2437019348      9.2437019348
    459.6641235352    186.6666717529      8.5074996948      8.5074996948
    459.7061157227    213.3333282471      8.4912223816      8.4912223816
    439.5591735840    213.3333282471      9.3019704819      9.3019704819
    439.4961853027    186.6666717529      9.2953376770      9.2953376770
    459.7061157227    213.3333282471      8.4912223816      8.4912223816
    459.7481079102    240.0000000000      8.4853849411      8.4853849411
    439.6221618652    240.0000000000      9.2698955536      9.2698955536
    439.5591735840    213.3333282471      9.3019704819      9.3019704819
    459.7481079102    240.0000000000      8.4853849411      8.4853849411
    459.7900695801    266.6666564941      8.4896574020      8.4896574020
    439.6851196289    266.6666564941      9.2266874313      9.2266874313
    439.6221618652    240.0000000000      9.2698955536      9.2698955536
    459.7900695801    266.6666564941      8.4896574020      8.4896574020
    459.8320617676    293.3333435059      8.4993753433      8.4993753433
    439.7481079102    293.3333435059      9.1979150772      9.1979150772
    439.6851196289    266.6666564941      9.2266874313      9.2266874313
    459.8320617676    293.3333435059      8.4993753433      8.4993753433
    459.8740539551    320.0000000000      8.5074901581      8.5074901581
    439.8110656738    320.0000000000      9.1907901764      9.1907901764
    439.7481079102    293.3333435059      9.1979150772      9.1979150772
    459.8740539551    320.0000000000      8.5074901581      8.5074901581
    459.9160156250    346.6666564941      8.5097446442      8.5097446442
    439.8740539551    346.6666564941      9.1985425949      9.1985425949
    439.8110656738    320.0000000000      9.1907901764      9.1907901764
    459.9160156250    346.6666564941      8.5097446442      8.5097446442
    459.9580078125    373.3333435059      8.5014553070      8.5014553070
    439.9370422363    373.3333435059      9.2005348206      9.2005348206
    439.8740539551    346.6666564941      9.1985425949      9.1985425949
    459.9580078125    373.3333435059      8.5014553070      8.5014553070
    460.0000000000    400.0000000000      8.5014553070      8.5014553070
    440.0000000000    400.0000000000      9.2005348206      9.2005348206
    439.9370422363    373.3333435059      9.2005348206      9.2005348206
    439.0553588867      0.0000000000      9.0741357803      9.0741357803
    439.1183471680     26.6666698456      9.0741357803      9.0741357803
    418.8244628906     26.6666698456     10.7803649902     10.7803649902
    418.7405090332      0.0000000000     10.7803649902     10.7803649902
    439.1183471680     26.6666698456      9.0741357803      9.0741357803
    439.1813049316     53.3333282471      9.0594654083      9.0594654083
    418.9084167480     53.3333282471     10.9183473587     10.9183473587
    418.8244628906     26.6666698456     10.7803649902     10.7803649902
    439.1813049316     53.3333282471      9.0594654083      9.0594654083
    439.2442932129     80.0000000000      9.0623149872      9.0623149872
    418.9924011230     80.0000000000     10.9105281830     10.9105281830
    418.9084167480     53.3333282471     10.9183473587     10.9183473587
    439.2442932129     80.0000000000      9.0623149872      9.0623149872
    439.3072814941    106.6666717529      9.0992155075      9.0992155075
    419.0763549805    106.6666717529     10.5824079514     10.5824079514
    418.9924011230     80.0000000000     10.9105281830     10.9105281830
    439.3072814941    106.6666717529      9.0992155075      9.0992155075
    439.3702392578    133.3333282471      9.1676177979      9.1676177979
    419.1603393555    133.3333282471      9.8891973495      9.8891973495
    419.0763549805    106.6666717529     10.5824079514     10.5824079514
    439.3702392578    133.3333282471      9.1676177979      9.1676177979
    439.4332275391    160.0000000000      9.2437019348      9.2437019348
    419.2442932129    160.0000000000      8.9838228226      8.9838228226
    419.1603393555    133.3333282471      9.8891973495      9.8891973495
    439.4332275391    160.0000000000      9.2437019348      9.2437019348
    439.4961853027    186.6666717529      9.2953376770      9.2953376770
    419.3282775879    186.6666717529      8.1768550873      8.1768550873
    419.2442932129    160.0000000000      8.9838228226      8.9838228226
    439.4961853027    186.6666717529      9.2953376770      9.2953376770
    439.5591735840    213.3333282471      9.3019704819      9.3019704819
    419.4122314453    213.3333282471      7.7794270515      7.7794270515
    419.3282775879    186.6666717529      8.1768550873      8.1768550873
    439.5591735840    213.3333282471      9.3019704819      9.3019704819
    439.6221618652    240.0000000000      9.2698955536      9.2698955536
    419.4961853027    240.0000000000      7.8898701668      7.8898701668
    419.4122314453    213.3333282471      7.7794270515      7.7794270515
    439.6221618652    240.0000000000      9.2698955536      9.2698955536
    439.6851196289    266.6666564941      9.2266874313      9.2266874313
    419.5801696777    266.6666564941      8.3355731964      8.3355731964
    419.4961853027    240.0000000000      7.8898701668      7.8898701668
    439.6851196289    266.6666564941      9.2266874313      9.2266874313
    439.7481079102    293.3333435059      9.1979150772      9.1979150772
    419.6641235352    293.3333435059      8.8316078186      8.8316078186
    419.5801696777    266.6666564941      8.3355731964      8.3355731964
    439.7481079102    293.3333435059      9.1979150772      9.1979150772
    439.8110656738    320.0000000000      9.1907901764      9.1907901764
    419.7481079102    320.0000000000      9.1685352325      9.1685352325
    419.6641235352    293.3333435059      8.8316078186      8.8316078186
    439.8110656738    320.0000000000      9.1907901764      9.1907901764
    439.8740539551    346.6666564941      9.1985425949      9.1985425949
    419.8320617676    346.6666564941      9.2624073029      9.2624073029
    419.7481079102    320.0000000000      9.1685352325      9.1685352325
    439.8740539551    346.6666564941      9.1985425949      9.1985425949
    439.9370422363    373.3333435059      9.2005348206      9.2005348206
    419.9160156250    373.3333435059      9.1218023300      9.1218023300
    419.8320617676    346.6666564941      9.2624073029      9.2624073029
    439.9370422363    373.3333435059      9.2005348206      9.2005348206
    440.0000000000    400.0000000000      9.2005348206      9.2005348206
    420.0000000000    400.0000000000      9.1218023300      9.1218023300
    419.9160156250    373.3333435059      9.1218023300      9.1218023300
    418.7405090332      0.0000000000     10.7803649902     10.7803649902
    418.8244628906     26.6666698456     10.7803649902     10.7803649902
    398.5305786133     26.6666698456     10.9361095428     10.9361095428
    398.4256286621      0.0000000000     10.9361095428     10.9361095428
    418.8244628906     26.6666698456     10.7803649902     10.7803649902
    418.9084167480     53.3333282471     10.9183473587     10.9183473587
    398.6355285645     53.3333282471     10.9247074127     10.9247074127
    398.5305786133     26.6666698456     10.9361095428     10.9361095428
    418.9084167480     53.3333282471     10.9183473587     10.9183473587
    418.9924011230     80.0000000000     10.9105281830     10.9105281830
    398.7405090332     80.0000000000     11.1863536835     11.1863536835
    398.6355285645     53.3333282471     10.9247074127     10.9247074127
    418.9924011230     80.0000000000     10.9105281830     10.9105281830
    419.0763549805    106.6666717529     10.5824079514     10.5824079514
    398.8454589844    106.6666717529     11.7237548828     11.7237548828
    398.7405090332     80.0000000000     11.1863536835     11.1863536835
    419.0763549805    106.6666717529     10.5824079514     10.5824079514
    419.1603393555    133.3333282471      9.8891973495      9.8891973495
    398.9504089355    133.3333282471     11.9442825317     11.9442825317
    398.8454589844    106.6666717529     11.7237548828     11.7237548828
    419.1603393555    133.3333282471      9.8891973495      9.8891973495
    419.2442932129    160.0000000000      8.9838228226      8.9838228226
    399.0553588867    160.0000000000     10.9999399185     10.9999399185
    398.9504089355    133.3333282471     11.9442825317     11.9442825317
    419.2442932129    160.0000000000      8.9838228226      8.9838228226
    419.3282775879    186.6666717529      8.1768550873      8.1768550873
    399.1603393555    186.6666717529      8.6852293015      8.6852293015
    399.0553588867    160.0000000000     10.9999399185     10.9999399185
    419.3282775879    186.6666717529      8.1768550873      8.1768550873
    419.4122314453    213.3333282471      7.7794270515      7.7794270515
    399.2652893066    213.3333282471      5.9379525185      5.9379525185
    399.1603393555    186.6666717529      8.6852293015      8.6852293015
    419.4122314453    213.3333282471      7.7794270515      7.7794270515
    419.4961853027    240.0000000000      7.8898701668      7.8898701668
    399.3702392578    240.0000000000      4.2477951050      4.2477951050
    399.2652893066    213.3333282471      5.9379525185      5.9379525185
    419.4961853027    240.0000000000      7.8898701668      7.8898701668
    419.5801696777    266.6666564941      8.3355731964      8.3355731964
    399.4752197266    266.6666564941      4.4887847900      4.4887847900
    399.3702392578    240.0000000000      4.2477951050      4.2477951050
    419.5801696777    266.6666564941      8.3355731964      8.3355731964
    419.6641235352    293.3333435059      8.8316078186      8.8316078186
    399.5801696777    293.3333435059      6.2925171852      6.2925171852
    399.4752197266    266.6666564941      4.4887847900      4.4887847900
    419.6641235352    293.3333435059      8.8316078186      8.8316078186
    419.7481079102    320.0000000000      9.1685352325      9.1685352325
    399.6851196289    320.0000000000      8.4401397705      8.4401397705
    399.5801696777    293.3333435059      6.2925171852      6.2925171852
    419.7481079102    320.0000000000      9.1685352325      9.1685352325
    419.8320617676    346.6666564941      9.2624073029      9.2624073029
    399.7900695801    346.6666564941      9.7582349777      9.7582349777
    399.6851196289    320.0000000000      8.4401397705      8.4401397705
    419.8320617676    346.6666564941      9.2624073029      9.2624073029
    419.9160156250    373.3333435059      9.1218023300      9.1218023300
    399.8950500488    373.3333435059      9.7854099274      9.7854099274
    399.7900695801    346.6666564941      9.7582349777      9.7582349777
    419.9160156250    373.3333435059      9.1218023300      9.1218023300
    420.0000000000    400.0000000000      9.1218023300      9.1218023300
    400.0000000000    400.0000000000      9.7854099274      9.7854099274
    399.8950500488    373.3333435059      9.7854099274      9.7854099274
    398.4256286621      0.0000000000     10.9361095428     10.9361095428
    398.5305786133     26.6666698456     10.9361095428     10.9361095428
    378.2366943359     26.6666698456      3.5898222923      3.5898222923
    378.1107482910      0.0000000000      3.5898222923      3.5898222923
    398.5305786133     26.6666698456     10.9361095428     10.9361095428
    398.6355285645     53.3333282471     10.9247074127     10.9247074127
    378.3626403809     53.3333282471      1.9065897465      1.9065897465
    378.2366943359     26.6666698456      3.5898222923      3.5898222923
    398.6355285645     53.3333282471     10.9247074127     10.9247074127
    398.7405090332     80.0000000000     11.1863536835     11.1863536835
    378.4885864258     80.0000000000      1.8642899990      1.8642899990
    378.3626403809     53.3333282471      1.9065897465      1.9065897465
    398.7405090332     80.0000000000     11.1863536835     11.1863536835
    398.8454589844    106.6666717529     11.7237548828     11.7237548828
    378.6145629883    106.6666717529      4.9703645706      4.9703645706
    378.4885864258     80.0000000000      1.8642899990      1.8642899990
    398.8454589844    106.6666717529     11.7237548828     11.7237548828
    398.9504089355    133.3333282471     11.9442825317     11.9442825317
    378.7405090332    133.3333282471      9.9741668701      9.9741668701
    378.6145629883    106.6666717529      4.9703645706      4.9703645706
    398.9504089355    133.3333282471     11.9442825317     11.9442825317
    399.0553588867    160.0000000000     10.9999399185     10.9999399185
    378.8664550781    160.0000000000     13.4120578766     13.4120578766
    378.7405090332    133.3333282471      9.9741668701      9.9741668701
    399.0553588867    160.0000000000     10.9999399185     10.9999399185
    399.1603393555    186.6666717529      8.6852293015      8.6852293015
    378.9924011230    186.6666717529     12.4965877533     12.4965877533
    378.8664550781    160.0000000000     13.4120578766     13.4120578766
    399.1603393555    186.6666717529      8.6852293015      8.6852293015
    399.2652893066    213.3333282471      5.9379525185      5.9379525185
    379.1183471680    213.3333282471      7.6769623756      7.6769623756
    378.9924011230    186.6666717529     12.4965877533     12.4965877533
    399.2652893066    213.3333282471      5.9379525185      5.9379525185
    399.3702392578    240.0000000000      4.2477951050      4.2477951050
    379.2442932129    240.0000000000      2.4466824532      2.4466824532
    379.1183471680    213.3333282471      7.6769623756      7.6769623756
    399.3702392578    240.0000000000      4.2477951050      4.2477951050
    399.4752197266    266.6666564941      4.4887847900      4.4887847900
    379.3702392578    266.6666564941      0.4175825417      0.4175825417
    379.2442932129    240.0000000000      2.4466824532      2.4466824532
    399.4752197266    266.6666564941      4.4887847900      4.4887847900
    399.5801696777    293.3333435059      6.2925171852      6.2925171852
    379.4961853027    293.3333435059      2.3766424656      2.3766424656
    379.3702392578    266.6666564941      0.4175825417      0.4175825417
    399.5801696777    293.3333435059      6.2925171852      6.2925171852
    399.6851196289    320.0000000000      8.4401397705      8.4401397705
    379.6221618652    320.0000000000      6.1361327171      6.1361327171
    379.4961853027    293.3333435059      2.3766424656      2.3766424656
    399.6851196289    320.0000000000      8.4401397705      8.4401397705
    399.7900695801    346.6666564941      9.7582349777      9.7582349777
    379.7481079102    346.6666564941      8.9140148163      8.9140148163
    379.6221618652    320.0000000000      6.1361327171      6.1361327171
    399.7900695801    346.6666564941      9.7582349777      9.7582349777
    399.8950500488    373.3333435059      9.7854099274      9.7854099274
    379.8740539551    373.3333435059      9.5110969543      9.5110969543
    379.7481079102    346.6666564941      8.9140148163      8.9140148163
    399.8950500488    373.3333435059      9.7854099274      9.7854099274
    400.0000000000    400.0000000000      9.7854099274      9.7854099274
    380.0000000000    400.0000000000      9.5110969543      9.5110969543
    379.8740539551    373.3333435059      9.5110969543      9.5110969543
    378.1107482910      0.0000000000      3.5898222923      3.5898222923
    378.2366943359     26.6666698456      3.5898222923      3.5898222923
    357.9428100586     26.6666698456     -0.9119949937     -0.9119949937
    357.7958679199      0.0000000000     -0.9119949937     -0.9119949937
    378.2366943359     26.6666698456      3.5898222923      3.5898222923
    378.3626403809     53.3333282471      1.9065897465      1.9065897465
    358.0897521973     53.3333282471     -4.6803097725     -4.6803097725
    357.9428100586     26.6666698456     -0.9119949937     -0.9119949937
    378.3626403809     53.3333282471      1.9065897465      1.9065897465
    378.4885864258     80.0000000000      1.8642899990      1.8642899990
    358.2366943359     80.0000000000     -6.8159074783     -6.8159074783
    358.0897521973     53.3333282471     -4.6803097725     -4.6803097725
    378.4885864258     80.0000000000      1.8642899990      1.8642899990
    378.6145629883    106.6666717529      4.9703645706      4.9703645706
    358.3836364746    106.6666717529     -4.6634998322     -4.6634998322
    358.2366943359     80.0000000000     -6.8159074783     -6.8159074783
    378.6145629883    106.6666717529      4.9703645706      4.9703645706
    378.7405090332    133.3333282471      9.9741668701      9.9741668701
    358.5305786133    133.3333282471      1.1564474106      1.1564474106
    358.3836364746    106.6666717529     -4.6634998322     -4.6634998322
    378.7405090332    133.3333282471      9.9741668701      9.9741668701
    378.8664550781    160.0000000000     13.4120578766     13.4120578766
    358.6775207520    160.0000000000      7.0642147064      7.0642147064
    358.5305786133    133.3333282471      1.1564474106      1.1564474106
    378.8664550781    160.0000000000     13.4120578766     13.4120578766
    378.9924011230    186.6666717529     12.4965877533     12.4965877533
    358.8244628906    186.6666717529      9.3167028427      9.3167028427
    358.6775207520    160.0000000000      7.0642147064      7.0642147064
    378.9924011230    186.6666717529     12.4965877533     12.4965877533
    379.1183471680    213.3333282471      7.6769623756      7.6769623756
    358.9714050293    213.3333282471      6.9925551414      6.9925551414
    358.8244628906    186.6666717529      9.3167028427      9.3167028427
    379.1183471680    213.3333282471      7.6769623756      7.6769623756
    379.2442932129    240.0000000000      2.4466824532      2.4466824532
    359.1183471680    240.0000000000      2.6840624809      2.6840624809
    358.9714050293    213.3333282471      6.9925551414      6.9925551414
    379.2442932129    240.0000000000      2.4466824532      2.4466824532
    379.3702392578    266.6666564941      0.4175825417      0.4175825417
    359.2652893066    266.6666564941      0.0740500018      0.0740500018
    359.1183471680    240.0000000000      2.6840624809      2.6840624809
    379.3702392578    266.6666564941      0.4175825417      0.4175825417
    379.4961853027    293.3333435059      2.3766424656      2.3766424656
    359.4122314453    293.3333435059      0.5668424964      0.5668424964
    359.2652893066    266.6666564941      0.0740500018      0.0740500018
    379.4961853027    293.3333435059      2.3766424656      2.3766424656
    379.6221618652    320.0000000000      6.1361327171      6.1361327171
    359.5591735840    320.0000000000      2.5507924557      2.5507924557
    359.4122314453    293.3333435059      0.5668424964      0.5668424964