# vtk DataFile Version 3.14.1
BMesh by KP LIAO
ASCII
DATASET UNSTRUCTURED_GRID
POINTS 	      8150 	FLOAT
    5.19868 	   2.72386 	   4.28267
    5.19647 	   2.59632 	   4.17304
    5.19438 	   2.52777 	   4.06936
    5.19074 	   2.49841 	   3.88826
    5.54158 	   2.49839 	   3.87709
    5.54959 	   2.81835 	   4.27502
    5.19439 	   2.47131 	   4.06971
    5.19649 	   2.40406 	   4.17423
    5.19873 	   2.27790 	   4.28545
    5.54967 	   2.18340 	   4.27898
    6.25145 	   2.82754 	   4.26084
    6.24344 	   2.49839 	   3.86296
    6.25153 	   2.17422 	   4.26491
    7.88111 	   2.49839 	   3.82999
    7.88920 	   2.17422 	   4.23194
    7.88912 	   2.82754 	   4.22787
    9.29283 	   2.82754 	   4.19962
    9.28482 	   2.49839 	   3.80174
    9.29292 	   2.17422 	   4.20368
    9.64899 	   2.49887 	   3.87242
    9.64894 	   2.49219 	   3.86985
    9.57920 	   2.49232 	   3.89232
    9.59802 	   2.49930 	   3.94213
    9.58021 	   2.48757 	   3.94256
    9.55375 	   2.48283 	   3.93643
    9.57768 	   2.49852 	   3.81665
    9.55099 	   2.49847 	   3.80972
    9.52148 	   2.47685 	   3.93151
    9.51892 	   2.49843 	   3.80419
    9.57920 	   2.50565 	   3.89224
    9.64893 	   2.50552 	   3.86977
    9.58021 	   2.51103 	   3.94241
    9.55374 	   2.51569 	   3.93622
    9.52148 	   2.52160 	   3.93123
    9.83539 	   2.82754 	   4.18869
    9.64376 	   2.82754 	   4.19255
    9.83146 	   2.49965 	   3.99344
    9.63910 	   2.49942 	   3.96105
    9.52679 	   2.82754 	   4.19491
    9.64384 	   2.17422 	   4.19662
    9.83547 	   2.17422 	   4.19276
    9.52687 	   2.17422 	   4.19897
    9.43095 	   2.17422 	   4.20090
    9.43087 	   2.82754 	   4.19684
    9.83543 	   2.50088 	   4.19073
    9.64851 	   2.49872 	   3.84843
    9.42286 	   2.49839 	   3.79896
    5.13591 	   2.51650 	   4.07185
    5.13472 	   2.52579 	   4.01207
    5.13240 	   2.49846 	   3.89710
    5.13472 	   2.47256 	   4.01240
    5.13592 	   2.48260 	   4.07206
    5.07636 	   2.47646 	   4.01995
    5.07717 	   2.49029 	   4.05986
    5.07743 	   2.49955 	   4.07313
    5.07717 	   2.50864 	   4.05974
    5.07636 	   2.52198 	   4.01967
    5.06674 	   2.49947 	   4.06001
    5.01787 	   2.51982 	   4.02086
    5.01868 	   2.49947 	   4.06098
    5.01788 	   2.47862 	   4.02112
    5.07422 	   2.49855 	   3.91323
    5.01625 	   2.49871 	   3.94023
    4.94048 	   2.49922 	   4.02255
    5.14019 	   2.69325 	   4.28404
    5.14023 	   2.30851 	   4.28644
    4.94117 	   2.50088 	   4.28925
    5.13805 	   2.57105 	   4.17816
    5.02605 	   2.50021 	   4.18085
    5.13807 	   2.42938 	   4.17904
    5.21710 	   2.73229 	   4.28176
    5.23571 	   2.74032 	   4.28108
    5.25450 	   2.74794 	   4.28063
    5.27346 	   2.75515 	   4.28036
    5.29256 	   2.76195 	   4.28020
    5.31181 	   2.76832 	   4.28007
    5.33120 	   2.77429 	   4.27987
    5.35070 	   2.77985 	   4.27958
    5.37030 	   2.78505 	   4.27917
    5.38999 	   2.78990 	   4.27868
    5.40975 	   2.79443 	   4.27814
    5.42957 	   2.79868 	   4.27758
    5.44945 	   2.80266 	   4.27704
    5.46938 	   2.80638 	   4.27655
    5.48937 	   2.80982 	   4.27611
    5.50940 	   2.81297 	   4.27572
    5.52947 	   2.81582 	   4.27536
    5.19845 	   2.70884 	   4.27153
    5.19822 	   2.69405 	   4.26008
    5.19798 	   2.67953 	   4.24829
    5.19774 	   2.66523 	   4.23623
    5.19750 	   2.65110 	   4.22398
    5.19725 	   2.63710 	   4.21158
    5.19699 	   2.62330 	   4.19895
    5.19673 	   2.60972 	   4.18608
    5.19621 	   2.58347 	   4.16023
    5.19595 	   2.57075 	   4.14728
    5.19568 	   2.55855 	   4.13386
    5.19539 	   2.54753 	   4.11945
    5.19508 	   2.53821 	   4.10390
    5.19474 	   2.53139 	   4.08711
    5.19399 	   2.52695 	   4.04973
    5.19359 	   2.52827 	   4.03012
    5.19320 	   2.53098 	   4.01065
    5.19281 	   2.53375 	   3.99118
    5.19241 	   2.53533 	   3.97160
    5.19202 	   2.53444 	   3.95196
    5.19163 	   2.53130 	   3.93257
    5.19125 	   2.52523 	   3.91390
    5.19091 	   2.51529 	   3.89699
    5.52208 	   2.49839 	   3.87737
    5.50257 	   2.49839 	   3.87768
    5.48306 	   2.49839 	   3.87804
    5.46356 	   2.49839 	   3.87845
    5.44405 	   2.49839 	   3.87892
    5.42455 	   2.49839 	   3.87944
    5.40505 	   2.49839 	   3.88000
    5.38555 	   2.49839 	   3.88054
    5.36604 	   2.49839 	   3.88102
    5.34654 	   2.49839 	   3.88138
    5.32703 	   2.49839 	   3.88163
    5.30752 	   2.49839 	   3.88180
    5.28801 	   2.49839 	   3.88197
    5.26850 	   2.49839 	   3.88230
    5.24901 	   2.49839 	   3.88298
    5.22953 	   2.49839 	   3.88415
    5.21010 	   2.49840 	   3.88590
    5.54923 	   2.81014 	   4.25686
    5.54888 	   2.80026 	   4.23956
    5.54855 	   2.78879 	   4.22326
    5.54824 	   2.77636 	   4.20767
    5.54794 	   2.76323 	   4.19268
    5.54764 	   2.74961 	   4.17812
    5.54736 	   2.73564 	   4.16389
    5.54708 	   2.72141 	   4.14993
    5.54680 	   2.70692 	   4.13623
    5.54652 	   2.69254 	   4.12243
    5.54624 	   2.67860 	   4.10818
    5.54594 	   2.66514 	   4.09347
    5.54564 	   2.65209 	   4.07840
    5.54532 	   2.63951 	   4.06294
    5.54501 	   2.62734 	   4.04714
    5.54469 	   2.61533 	   4.03123
    5.54437 	   2.60331 	   4.01533
    5.54405 	   2.59132 	   3.99940
    5.54372 	   2.57933 	   3.98348
    5.54340 	   2.56761 	   3.96734
    5.54306 	   2.55673 	   3.95064
    5.54271 	   2.54747 	   3.93301
    5.54234 	   2.54017 	   3.91446
    5.54198 	   2.53106 	   3.89680
    5.54170 	   2.51706 	   3.88277
    5.19399 	   2.47189 	   4.05007
    5.19360 	   2.47033 	   4.03048
    5.19321 	   2.46737 	   4.01104
    5.19282 	   2.46436 	   3.99161
    5.19242 	   2.46254 	   3.97205
    5.19203 	   2.46318 	   3.95241
    5.19164 	   2.46608 	   3.93297
    5.19126 	   2.47192 	   3.91423
    5.19092 	   2.48164 	   3.89720
    5.19623 	   2.41675 	   4.16127
    5.19597 	   2.42930 	   4.14817
    5.19570 	   2.44134 	   4.13459
    5.19540 	   2.45218 	   4.12005
    5.19509 	   2.46130 	   4.10438
    5.19475 	   2.46792 	   4.08751
    5.19850 	   2.29278 	   4.27412
    5.19827 	   2.30742 	   4.26249
    5.19803 	   2.32180 	   4.25052
    5.19778 	   2.33594 	   4.23829
    5.19753 	   2.34992 	   4.22586
    5.19728 	   2.36377 	   4.21328
    5.19702 	   2.37741 	   4.20048
    5.19676 	   2.39082 	   4.18745
    5.21716 	   2.26946 	   4.28464
    5.23577 	   2.26143 	   4.28406
    5.25456 	   2.25381 	   4.28371
    5.27352 	   2.24660 	   4.28353
    5.29263 	   2.23980 	   4.28346
    5.31188 	   2.23343 	   4.28340
    5.33127 	   2.22747 	   4.28328
    5.35077 	   2.22191 	   4.28305
    5.37037 	   2.21671 	   4.28271
    5.39006 	   2.21186 	   4.28228
    5.40982 	   2.20732 	   4.28179
    5.42965 	   2.20307 	   4.28129
    5.44953 	   2.19909 	   4.28080
    5.46946 	   2.19538 	   4.28036
    5.48944 	   2.19193 	   4.27996
    5.50947 	   2.18878 	   4.27961
    5.52955 	   2.18593 	   4.27928
    5.54931 	   2.19138 	   4.26071
    5.54895 	   2.20106 	   4.24329
    5.54862 	   2.21232 	   4.22685
    5.54831 	   2.22455 	   4.21111
    5.54800 	   2.23750 	   4.19595
    5.54771 	   2.25094 	   4.18123
    5.54742 	   2.26473 	   4.16683
    5.54713 	   2.27878 	   4.15268
    5.54685 	   2.29310 	   4.13881
    5.54657 	   2.30731 	   4.12483
    5.54628 	   2.32107 	   4.11041
    5.54598 	   2.33434 	   4.09553
    5.54567 	   2.34721 	   4.08030
    5.54536 	   2.35959 	   4.06468
    5.54504 	   2.37156 	   4.04873
    5.54472 	   2.38338 	   4.03268
    5.54439 	   2.39519 	   4.01662
    5.54407 	   2.40699 	   4.00055
    5.54374 	   2.41878 	   3.98448
    5.54342 	   2.43029 	   3.96820
    5.54308 	   2.44096 	   3.95137
    5.54272 	   2.45001 	   3.93361
    5.54235 	   2.45707 	   3.91498
    5.54199 	   2.46596 	   3.89720
    5.54170 	   2.47979 	   3.88300
    5.19873 	   2.30413 	   4.28529
    5.19873 	   2.33036 	   4.28513
    5.19872 	   2.35660 	   4.28496
    5.19872 	   2.38283 	   4.28480
    5.19872 	   2.40906 	   4.28464
    5.19871 	   2.43530 	   4.28447
    5.19871 	   2.46153 	   4.28431
    5.19871 	   2.48776 	   4.28415
    5.19870 	   2.51399 	   4.28398
    5.19870 	   2.54023 	   4.28382
    5.19870 	   2.56646 	   4.28365
    5.19869 	   2.59269 	   4.28349
    5.19869 	   2.61893 	   4.28333
    5.19869 	   2.64516 	   4.28316
    5.19868 	   2.67139 	   4.28300
    5.19868 	   2.69763 	   4.28284
    5.54967 	   2.24690 	   4.27858
    5.54966 	   2.31039 	   4.27819
    5.54965 	   2.37389 	   4.27779
    5.54964 	   2.43738 	   4.27739
    5.54963 	   2.50088 	   4.27700
    5.54963 	   2.56437 	   4.27660
    5.54962 	   2.62787 	   4.27621
    5.54961 	   2.69136 	   4.27581
    5.54960 	   2.75486 	   4.27542
    6.25098 	   2.82739 	   4.23750
    6.25051 	   2.82725 	   4.21416
    6.25004 	   2.82710 	   4.19082
    6.24957 	   2.82696 	   4.16748
    6.24910 	   2.82681 	   4.14414
    6.24863 	   2.82637 	   4.12080
    6.24816 	   2.82451 	   4.09754
    6.24770 	   2.82036 	   4.07459
    6.24725 	   2.81329 	   4.05237
    6.24683 	   2.80286 	   4.03151
    6.24644 	   2.78999 	   4.01204
    6.24607 	   2.77561 	   3.99367
    6.24572 	   2.76018 	   3.97615
    6.24538 	   2.74420 	   3.95914
    6.24504 	   2.72796 	   3.94237
    6.24471 	   2.71149 	   3.92582
    6.24438 	   2.69477 	   3.90954
    6.24406 	   2.67743 	   3.89392
    6.24379 	   2.65861 	   3.88014
    6.24358 	   2.63765 	   3.86995
    6.24347 	   2.61502 	   3.86435
    6.24343 	   2.59177 	   3.86252
    6.24343 	   2.56842 	   3.86252
    6.24344 	   2.54508 	   3.86267
    6.24344 	   2.52173 	   3.86281
    5.58841 	   2.82228 	   4.27438
    5.62732 	   2.82502 	   4.27369
    5.66630 	   2.82669 	   4.27293
    5.70530 	   2.82750 	   4.27208
    5.74431 	   2.82770 	   4.27118
    5.78332 	   2.82754 	   4.27026
    5.82232 	   2.82723 	   4.26935
[...]
CELL_DATA 	      9403
SCALARS 	cell_scalars 	FLOAT 	         1
LOOKUP_TABLE 	DEFAULT
    -0.60713E+02
    -0.57011E+02
    -0.59763E+02
    -0.56570E+02
    -0.58193E+02
    -0.57373E+02
    -0.56960E+02
    -0.59614E+02
    -0.58315E+02
    -0.55760E+02
    -0.56707E+02
    -0.57650E+02
    -0.54964E+02
    -0.51827E+02
    -0.53242E+02
    -0.54210E+02
    -0.53642E+02
    -0.53085E+02
    -0.58792E+02
    -0.54582E+02
    -0.57806E+02
    -0.55818E+02
    -0.55529E+02
    -0.57504E+02
    -0.57579E+02
    -0.58818E+02
    -0.58696E+02
    -0.57532E+02
    -0.57991E+02
    -0.58473E+02
    -0.58588E+02
    -0.59026E+02
    -0.58742E+02
    -0.58519E+02
    -0.59301E+02
    -0.59244E+02
    -0.59903E+02
    -0.59011E+02
    -0.60646E+02
    -0.61047E+02
    -0.61213E+02
    -0.63680E+02
    -0.63730E+02
    -0.64802E+02
    -0.65221E+02
    -0.62673E+02
    -0.62249E+02
    -0.62729E+02
    -0.61622E+02
    -0.62154E+02
    -0.61688E+02
    -0.62031E+02
    -0.63496E+02
    -0.62416E+02
    -0.61855E+02
    -0.61505E+02
    -0.62083E+02
    -0.62112E+02
    -0.62774E+02
    -0.64342E+02
    -0.63936E+02
    -0.63595E+02
    -0.63905E+02
    -0.63237E+02
    -0.65698E+02
    -0.67214E+02
    -0.63925E+02
    -0.63519E+02
    -0.64658E+02
    -0.64069E+02
    -0.63397E+02
    -0.62256E+02
    -0.63715E+02
    -0.64886E+02
    -0.64771E+02
    -0.65024E+02
    -0.64320E+02
    -0.64691E+02
    -0.64915E+02
    -0.64896E+02
    -0.64460E+02
    -0.64268E+02
    -0.65728E+02
    -0.65898E+02
    -0.64152E+02
    -0.64590E+02
    -0.65427E+02
    -0.64388E+02
    -0.63715E+02
    -0.63909E+02
    -0.63260E+02
    -0.64509E+02
    -0.64919E+02
    -0.66368E+02
    -0.65128E+02
    -0.65480E+02
    -0.65457E+02
    -0.65850E+02
    -0.66763E+02
    -0.65735E+02
    -0.65662E+02
    -0.65687E+02
    -0.65184E+02
    -0.65639E+02
    -0.65762E+02
    -0.65010E+02
    -0.65469E+02
    -0.65765E+02
    -0.64639E+02
    -0.64841E+02
    -0.64660E+02
    -0.65258E+02
    -0.64411E+02
    -0.65484E+02
    -0.65874E+02
    -0.65643E+02
    -0.67184E+02
    -0.66559E+02
    -0.66940E+02
    -0.66891E+02
    -0.65778E+02
    -0.65564E+02
    -0.65733E+02
    -0.65153E+02
    -0.65299E+02
    -0.65454E+02
    -0.62713E+02
    -0.65584E+02
    -0.65152E+02
    -0.65448E+02
    -0.65366E+02
    -0.65307E+02
    -0.66133E+02
    -0.66151E+02
    -0.66786E+02
    -0.66226E+02
    -0.67231E+02
    -0.67790E+02
    -0.66404E+02
    -0.67127E+02
    -0.66580E+02
    -0.65218E+02
    -0.65147E+02
    -0.65323E+02
    -0.61898E+02
    -0.64529E+02
    -0.64044E+02
    -0.63631E+02
    -0.65209E+02
    -0.65895E+02
    -0.67065E+02
    -0.66914E+02
    -0.67859E+02
    -0.67191E+02
    -0.66773E+02
    -0.67084E+02
    -0.65737E+02
    -0.66996E+02
    -0.67365E+02
    -0.65471E+02
    -0.66553E+02
    -0.66690E+02
    -0.62536E+02
    -0.64171E+02
    -0.64632E+02
    -0.64231E+02
    -0.65033E+02
    -0.65815E+02
    -0.66960E+02
    -0.66334E+02
    -0.67341E+02
    -0.68425E+02
    -0.67460E+02
    -0.68642E+02
    -0.66972E+02
    -0.65134E+02
    -0.65719E+02
    -0.65021E+02
    -0.66060E+02
    -0.66064E+02
    -0.63450E+02
    -0.63870E+02
    -0.65764E+02
    -0.65795E+02
    -0.67192E+02
    -0.66664E+02
    -0.66256E+02
    -0.65977E+02
    -0.65778E+02
    -0.66348E+02
    -0.65240E+02
    -0.66846E+02
    -0.68280E+02
    -0.64738E+02
    -0.65430E+02
    -0.65610E+02
    -0.64991E+02
    -0.64609E+02
    -0.63743E+02
    -0.63324E+02
    -0.64295E+02
    -0.64931E+02
    -0.66192E+02
    -0.64680E+02
    -0.63529E+02
    -0.64424E+02
    -0.64403E+02
    -0.65231E+02
    -0.64820E+02
    -0.63549E+02
    -0.64006E+02
    -0.62924E+02
    -0.63637E+02
    -0.63849E+02
    -0.64043E+02
    -0.64450E+02
    -0.62589E+02
    -0.61880E+02
    -0.63478E+02
    -0.62854E+02
    -0.63118E+02
    -0.63058E+02
    -0.63474E+02
    -0.62804E+02
    -0.61777E+02
    -0.63322E+02
    -0.62877E+02
    -0.60884E+02
    -0.61818E+02
    -0.63484E+02
    -0.62560E+02
    -0.61325E+02
    -0.63371E+02
    -0.63836E+02
    -0.58452E+02
    -0.60550E+02
    -0.59874E+02
    -0.58467E+02
    -0.60680E+02
    -0.61121E+02
    -0.60332E+02
    -0.60459E+02
    -0.61362E+02
    -0.60348E+02
    -0.59180E+02
    -0.60678E+02
    -0.60727E+02
    -0.60849E+02
    -0.62004E+02
    -0.61688E+02
    -0.61307E+02
    -0.60617E+02
    -0.56977E+02
    -0.56577E+02
    -0.54874E+02
    -0.55610E+02
    -0.56282E+02
    -0.57406E+02
    -0.57971E+02
    -0.56834E+02
    -0.57379E+02
    -0.57816E+02
    -0.58656E+02
    -0.58992E+02
    -0.57942E+02
    -0.59740E+02
    -0.61385E+02
    -0.60073E+02
    -0.59897E+02
    -0.61014E+02
    -0.53915E+02
    -0.53949E+02
    -0.52752E+02
    -0.50949E+02
    -0.52838E+02
    -0.54680E+02
    -0.54096E+02
    -0.54281E+02
    -0.55257E+02
    -0.55330E+02
    -0.55922E+02
    -0.57477E+02
    -0.57283E+02
    -0.57410E+02
    -0.58825E+02
    -0.59429E+02
    -0.59949E+02
    -0.59485E+02
    -0.50274E+02
    -0.51519E+02
    -0.51338E+02
    -0.47912E+02
    -0.48891E+02
    -0.52815E+02
    -0.53115E+02
    -0.52299E+02
    -0.52737E+02
    -0.54443E+02
    -0.54971E+02
    -0.54788E+02
    -0.54947E+02
    -0.56094E+02
    -0.57215E+02
    -0.56917E+02
    -0.58297E+02
    -0.58794E+02
    -0.49593E+02
    -0.49671E+02
    -0.49334E+02
    -0.48073E+02
    -0.48287E+02
    -0.50426E+02
    -0.51863E+02
    -0.51835E+02
    -0.50863E+02
    -0.50334E+02
    -0.51233E+02
    -0.53276E+02
    -0.54527E+02
    -0.53730E+02
    -0.54509E+02
    -0.55292E+02
    -0.57424E+02
    -0.57849E+02
    -0.47924E+02
    -0.47251E+02
    -0.47233E+02
    -0.47299E+02
    -0.47835E+02
    -0.49091E+02
    -0.50594E+02
    -0.51259E+02
    -0.50902E+02
    -0.48699E+02
    -0.46743E+02
    -0.49408E+02
    -0.51566E+02
    -0.50676E+02
    -0.54381E+02
    -0.54369E+02
    -0.53306E+02
    -0.52160E+02
    -0.45231E+02
    -0.44889E+02
    -0.45030E+02
    -0.46173E+02
    -0.47018E+02
    -0.47127E+02
    -0.48601E+02
    -0.50232E+02
    -0.50159E+02
    -0.49547E+02
    -0.48595E+02
    -0.47017E+02
    -0.44156E+02
    -0.42540E+02
    -0.47158E+02
    -0.51329E+02
    -0.51557E+02
    -0.40110E+02
    -0.43463E+02
    -0.42836E+02
    -0.42250E+02
    -0.42672E+02
    -0.42203E+02
    -0.41099E+02
    -0.43339E+02
    -0.46362E+02
    -0.46454E+02
    -0.44706E+02
    -0.42845E+02
    -0.39785E+02
    -0.35044E+02
    -0.28587E+02
    -0.22914E+02
    -0.15772E+02
    -0.68973E+01
     0.90467E+01
    -0.38213E+02
    -0.35718E+02
    -0.32081E+02
    -0.28028E+02
    -0.22099E+02
    -0.17186E+02
    -0.19693E+02
    -0.23252E+02
    -0.17030E+02
    -0.47307E+01
     0.64538E+01
     0.17360E+02
     0.24951E+02
     0.26036E+02
     0.17766E+02
     0.22191E+02
     0.44512E+02
     0.80776E+02
    -0.13375E+02
    -0.38775E+01
     0.10743E+02
     0.29327E+02
     0.53097E+02
     0.82115E+02
     0.10899E+03
     0.12107E+03
     0.12233E+03
     0.13203E+03
     0.15326E+03
     0.17366E+03
     0.18340E+03
     0.17569E+03
     0.15643E+03
     0.15813E+03
     0.18727E+03
     0.23739E+03
     0.48283E+02
     0.43116E+02
     0.72649E+02
     0.12025E+03
     0.17107E+03
     0.21042E+03
     0.23969E+03
     0.26032E+03
     0.27579E+03
     0.29094E+03
     0.30987E+03
     0.33310E+03
     0.35893E+03
     0.38420E+03
     0.40268E+03
     0.40975E+03
     0.42752E+03
     0.46561E+03
     0.27744E+03
     0.28152E+03
     0.31031E+03
     0.34440E+03
     0.38146E+03
     0.40983E+03
     0.42792E+03
     0.44675E+03
     0.47278E+03
     0.49432E+03
     0.51066E+03
     0.52738E+03
     0.54638E+03
     0.56645E+03
     0.58136E+03
     0.58840E+03
     0.61942E+03
     0.65764E+03
     0.58845E+03
     0.55213E+03
     0.53163E+03
     0.53165E+03
     0.54265E+03
     0.55574E+03
     0.56682E+03
     0.58102E+03
     0.60180E+03
     0.62166E+03
     0.63748E+03
     0.65104E+03
     0.66616E+03
     0.68605E+03
     0.70987E+03
     0.73603E+03
     0.76675E+03
     0.79618E+03
    -0.56150E+02
    -0.55696E+02
    -0.56587E+02
    -0.55376E+02
    -0.56735E+02
    -0.58808E+02
    -0.58991E+02
    -0.58078E+02
    -0.58352E+02
    -0.60039E+02
    -0.58699E+02
    -0.57865E+02
    -0.59175E+02
    -0.58957E+02
    -0.58627E+02
    -0.56844E+02
    -0.55629E+02
    -0.53917E+02
    -0.59046E+02
    -0.57625E+02
    -0.58795E+02
    -0.60513E+02
    -0.60261E+02
    -0.58293E+02
    -0.57863E+02
    -0.57713E+02
    -0.58564E+02
    -0.58401E+02
    -0.57062E+02
    -0.59148E+02
    -0.59278E+02
    -0.56516E+02
    -0.57907E+02
    -0.56716E+02
    -0.57078E+02
    -0.56095E+02
    -0.63462E+02
    -0.62338E+02
    -0.61129E+02
    -0.61731E+02
    -0.63115E+02
    -0.63247E+02
    -0.62133E+02
    -0.61049E+02
    -0.62669E+02
    -0.63687E+02
    -0.61570E+02
    -0.63966E+02
    -0.64127E+02
    -0.60857E+02
    -0.60945E+02
    -0.59229E+02
    -0.59010E+02
    -0.57608E+02
    -0.63443E+02
    -0.64591E+02
    -0.64658E+02
    -0.63264E+02
    -0.63479E+02
    -0.64538E+02
    -0.64111E+02
    -0.62634E+02
    -0.63290E+02
    -0.64794E+02
    -0.63429E+02
    -0.62897E+02
    -0.62827E+02
    -0.62337E+02
    -0.62307E+02
    -0.62043E+02
    -0.61880E+02
    -0.61621E+02
    -0.65166E+02
    -0.64981E+02
    -0.65475E+02
    -0.66043E+02
    -0.65446E+02
    -0.64275E+02
    -0.63170E+02
    -0.62653E+02
    -0.63896E+02
    -0.64805E+02
    -0.64395E+02
    -0.63968E+02
    -0.63685E+02
    -0.64512E+02
    -0.65090E+02
    -0.64430E+02
    -0.64329E+02
    -0.62768E+02
    -0.67320E+02
    -0.65549E+02
    -0.64941E+02
    -0.66493E+02
    -0.66475E+02
    -0.64848E+02
    -0.63685E+02
    -0.63832E+02
    -0.65645E+02
    -0.66574E+02
    -0.65521E+02
    -0.65595E+02
    -0.64687E+02
    -0.65122E+02
    -0.65195E+02
    -0.63697E+02
    -0.64222E+02
    -0.62739E+02
    -0.67457E+02
    -0.67101E+02
    -0.66163E+02
    -0.67122E+02
    -0.66757E+02
    -0.65721E+02
    -0.65586E+02
    -0.64940E+02
    -0.65824E+02
    -0.66945E+02
    -0.65806E+02
    -0.65675E+02
    -0.65038E+02
    -0.64902E+02
    -0.64257E+02
    -0.64372E+02
    -0.65141E+02
    -0.63628E+02
    -0.67696E+02
    -0.67152E+02
    -0.66617E+02
    -0.67839E+02
    -0.67442E+02
    -0.66325E+02
    -0.66594E+02
    -0.65389E+02
    -0.65678E+02
    -0.66306E+02
    -0.66204E+02
    -0.66283E+02
    -0.65368E+02
    -0.66235E+02
    -0.64511E+02
    -0.65468E+02
    -0.65726E+02
    -0.63147E+02
    -0.68055E+02
    -0.67067E+02
    -0.65529E+02
    -0.66589E+02
    -0.65677E+02
    -0.65894E+02
    -0.66834E+02
    -0.66625E+02
    -0.67647E+02
    -0.67047E+02
    -0.66328E+02
    -0.66103E+02
    -0.65123E+02
    -0.66533E+02
    -0.64580E+02
    -0.64130E+02
    -0.64215E+02
    -0.63466E+02
    -0.66822E+02
    -0.66007E+02
    -0.65218E+02
    -0.65758E+02
    -0.65982E+02
    -0.68136E+02
    -0.68008E+02
    -0.67339E+02
    -0.68325E+02
    -0.66467E+02
    -0.65565E+02
    -0.65414E+02
    -0.64962E+02
    -0.66183E+02
    -0.65216E+02
    -0.64666E+02
    -0.64140E+02
    -0.64772E+02
    -0.65206E+02
    -0.65444E+02
    -0.66262E+02
    -0.65605E+02
    -0.64381E+02
    -0.65828E+02
    -0.64668E+02
    -0.65653E+02
    -0.67021E+02
    -0.66575E+02
    -0.66078E+02
    -0.65508E+02
    -0.66379E+02
    -0.67657E+02
    -0.66581E+02
    -0.66080E+02
    -0.63795E+02
    -0.64009E+02
    -0.64539E+02
    -0.63940E+02
    -0.63993E+02
    -0.63707E+02
    -0.62770E+02
    -0.63184E+02
    -0.63708E+02
    -0.65859E+02
    -0.65600E+02
    -0.64868E+02
    -0.64095E+02
    -0.62737E+02
    -0.64044E+02
    -0.65612E+02
    -0.64760E+02
    -0.64178E+02
    -0.63392E+02
    -0.64017E+02
    -0.63469E+02
    -0.63194E+02
    -0.61232E+02
    -0.60459E+02
    -0.61775E+02
    -0.61681E+02
    -0.60647E+02
    -0.62582E+02
    -0.62747E+02
    -0.61256E+02
    -0.61787E+02
    -0.62195E+02
    -0.62626E+02
    -0.62900E+02
    -0.62567E+02
    -0.63074E+02
    -0.61517E+02
    -0.62265E+02
    -0.60619E+02
    -0.60940E+02
    -0.61132E+02
    -0.59597E+02
    -0.58990E+02
    -0.60262E+02
    -0.60546E+02
    -0.59059E+02
    -0.59728E+02
    -0.60777E+02
    -0.60001E+02
    -0.59819E+02
    -0.61259E+02
    -0.60891E+02
    -0.58178E+02
    -0.59694E+02
    -0.60393E+02
    -0.58511E+02
    -0.60941E+02
    -0.59817E+02
    -0.59900E+02
    -0.60970E+02
    -0.59367E+02
    -0.57866E+02
    -0.58771E+02
    -0.58162E+02
    -0.57597E+02
    -0.57353E+02
    -0.56937E+02
    -0.58547E+02
    -0.58077E+02
    -0.56629E+02
    -0.56042E+02
    -0.55036E+02
    -0.56236E+02
    -0.57114E+02
    -0.59419E+02
    -0.59053E+02
    -0.59020E+02
    -0.58956E+02
    -0.57132E+02
    -0.57564E+02
    -0.57599E+02
    -0.55434E+02
    -0.54649E+02
    -0.54913E+02
    -0.54793E+02
    -0.54840E+02
    -0.55142E+02
    -0.53864E+02
    -0.52237E+02
    -0.52837E+02
    -0.53736E+02
    -0.54325E+02
    -0.59383E+02
    -0.57695E+02
    -0.55878E+02
    -0.56674E+02
    -0.55640E+02
    -0.54927E+02
    -0.54238E+02
    -0.53829E+02
    -0.52881E+02
    -0.51892E+02
    -0.52249E+02
    -0.53091E+02
    -0.53477E+02
    -0.51409E+02
    -0.49624E+02
    -0.51234E+02
    -0.51503E+02
    -0.50754E+02
    -0.58037E+02
    -0.57110E+02
    -0.53879E+02
    -0.53566E+02
    -0.52992E+02
    -0.53429E+02
    -0.53236E+02
    -0.49622E+02
    -0.47877E+02
    -0.49348E+02
    -0.51115E+02
    -0.51626E+02
    -0.50952E+02
    -0.49590E+02
    -0.49016E+02
    -0.49222E+02
    -0.49425E+02
    -0.49362E+02
    -0.54729E+02
    -0.52375E+02
    -0.52842E+02
    -0.53956E+02
    -0.52354E+02
    -0.49823E+02
    -0.48973E+02
    -0.44306E+02
    -0.46193E+02
    -0.49677E+02
    -0.50759E+02
    -0.50602E+02
    -0.49763E+02
    -0.49851E+02
    -0.48883E+02
    -0.47023E+02
    -0.46618E+02
    -0.47202E+02
    -0.38423E+02
    -0.47260E+02
    -0.53316E+02
    -0.51557E+02
    -0.46115E+02
    -0.41497E+02
    -0.44111E+02
    -0.47087E+02
    -0.48737E+02
    -0.49715E+02
    -0.49357E+02
    -0.49156E+02
    -0.48159E+02
    -0.48587E+02
    -0.47509E+02
    -0.45068E+02
    -0.44376E+02
    -0.44459E+02
     0.14198E+02
    -0.28251E+01
    -0.12259E+02
    -0.20111E+02
    -0.29405E+02
    -0.35538E+02
    -0.39366E+02
    -0.43606E+02
    -0.46702E+02
    -0.47404E+02
    -0.46294E+02
    -0.44595E+02
    -0.44155E+02
    -0.44353E+02
    -0.43197E+02
    -0.42006E+02
    -0.42213E+02
    -0.42579E+02
     0.10417E+03
     0.79690E+02
     0.60103E+02
     0.33065E+02
     0.11638E+01
    -0.98950E+01
    -0.10387E+02
    -0.14525E+02
    -0.17616E+02
    -0.18332E+02
    -0.19083E+02
    -0.21877E+02
    -0.27586E+02
    -0.29839E+02
    -0.29043E+02
    -0.30704E+02
    -0.34491E+02
    -0.37330E+02
     0.25552E+03
     0.22781E+03
     0.19347E+03
     0.14942E+03
     0.98948E+02
     0.85455E+02
     0.93689E+02
     0.10011E+03
     0.10512E+03
     0.11124E+03
     0.10633E+03
     0.92442E+02
     0.81512E+02
     0.75519E+02
     0.58022E+02
     0.31211E+02
     0.84219E+01
    -0.91508E+01
     0.46786E+03
     0.43105E+03
     0.39251E+03
     0.34843E+03
     0.31578E+03
     0.31239E+03
     0.30839E+03
     0.30079E+03
     0.29053E+03
     0.27286E+03
     0.25439E+03
     0.23800E+03
     0.22517E+03
     0.21218E+03
     0.18553E+03
     0.14759E+03
     0.98354E+02
     0.42740E+02
     0.66841E+03
     0.60917E+03
     0.55978E+03
     0.51803E+03
     0.47436E+03
     0.47929E+03
     0.48963E+03
     0.48792E+03
     0.48146E+03
     0.46627E+03
     0.44813E+03
     0.43138E+03
     0.41777E+03
     0.40230E+03
     0.37438E+03
     0.33911E+03
     0.29123E+03
     0.22742E+03
     0.81341E+03
     0.77699E+03
     0.73851E+03
     0.70117E+03
     0.66577E+03
     0.64810E+03
     0.63843E+03
     0.62731E+03
     0.61358E+03
     0.59631E+03
     0.57873E+03
     0.56474E+03
     0.55335E+03
     0.54134E+03
     0.52685E+03
     0.51503E+03
     0.51573E+03
     0.54159E+03
    -0.52867E+02
    -0.42416E+02
    -0.52998E+02
    -0.48708E+02
    -0.34227E+02
    -0.49255E+02
    -0.51311E+02
    -0.49362E+02
    -0.50857E+02
    -0.55070E+02
    -0.53662E+02
    -0.55154E+02
    -0.54873E+02
    -0.60047E+02
    -0.61783E+02
    -0.58658E+02
    -0.56442E+02
    -0.57385E+02
    -0.57721E+02
    -0.58684E+02
    -0.56166E+02
    -0.56022E+02
    -0.57445E+02
    -0.59183E+02
    -0.55703E+02
    -0.57328E+02
    -0.57158E+02
    -0.56565E+02
    -0.56015E+02
    -0.57336E+02
    -0.57228E+02
    -0.55567E+02
    -0.55519E+02
    -0.56490E+02
    -0.42559E+02
    -0.50507E+02
    -0.45091E+02
    -0.50987E+02
    -0.47108E+02
    -0.50930E+02
    -0.49663E+02
    -0.54011E+02
    -0.53191E+02
    -0.56294E+02
    -0.52999E+02
    -0.55975E+02
    -0.53504E+02
    -0.55319E+02
    -0.56257E+02
    -0.56768E+02
    -0.57372E+02
    -0.57931E+02
    -0.48910E+02
    -0.54209E+02
    -0.51924E+02
    -0.54445E+02
    -0.53655E+02
    -0.55578E+02
    -0.55201E+02
    -0.56098E+02
    -0.53674E+02
    -0.56322E+02
    -0.54443E+02
    -0.57064E+02
    -0.55540E+02
    -0.57043E+02
    -0.56740E+02
    -0.57578E+02
    -0.57130E+02
    -0.58355E+02
    -0.43967E+02
    -0.41153E+02
    -0.37688E+02
    -0.36172E+02
    -0.35374E+02
    -0.34219E+02
    -0.34144E+02
    -0.33559E+02
    -0.33307E+02
    -0.32856E+02
    -0.32947E+02
    -0.33333E+02
    -0.33356E+02
    -0.33237E+02
    -0.33310E+02
    -0.33261E+02
    -0.33612E+02
    -0.34062E+02
    -0.34123E+02
    -0.34056E+02
    -0.34311E+02
    -0.34615E+02
    -0.35054E+02
    -0.35185E+02
    -0.35582E+02
    -0.36266E+02
    -0.37372E+02
    -0.39053E+02
    -0.40883E+02
    -0.46101E+02
    -0.56839E+02
    -0.57195E+02
    -0.50228E+02
    -0.42449E+02
    -0.45637E+02
    -0.47230E+02
    -0.43840E+02
    -0.48515E+02
    -0.44922E+02
    -0.49260E+02
    -0.45836E+02
    -0.52380E+02
    -0.47273E+02
    -0.53819E+02
    -0.50716E+02
    -0.49604E+02
    -0.46439E+02
    -0.51192E+02
    -0.46980E+02
    -0.50728E+02
    -0.47412E+02
    -0.51170E+02
    -0.47986E+02
    -0.54080E+02
    -0.49461E+02
    -0.54756E+02
    -0.52535E+02
    -0.36903E+02
    -0.41271E+02
    -0.45122E+02
    -0.40114E+02
    -0.46807E+02
    -0.43004E+02
    -0.47544E+02
    -0.44159E+02
    -0.47799E+02
    -0.45032E+02
    -0.49438E+02
    -0.46293E+02
    -0.50401E+02
    -0.47247E+02
    -0.50783E+02
    -0.47005E+02
    -0.51445E+02
    -0.47646E+02
    -0.27530E+02
    -0.32032E+02
    -0.35791E+02
    -0.30624E+02
    -0.38188E+02
    -0.33620E+02
    -0.40622E+02
    -0.35870E+02
    -0.43572E+02
    -0.38863E+02
    -0.46116E+02
    -0.42037E+02
    -0.47873E+02
    -0.44060E+02
    -0.50905E+02
    -0.45789E+02
    -0.52345E+02
    -0.48099E+02
    -0.39647E+02
    -0.41274E+02
    -0.37250E+02
    -0.37927E+02
    -0.35735E+02
    -0.36324E+02
    -0.34605E+02
    -0.34987E+02
    -0.33796E+02
    -0.33991E+02
    -0.33493E+02
    -0.33556E+02
    -0.33006E+02
    -0.33156E+02
    -0.32991E+02
    -0.32929E+02
    -0.33208E+02
    -0.32936E+02
    -0.33216E+02
    -0.33339E+02
    -0.33817E+02
    -0.33530E+02
    -0.34652E+02
    -0.34363E+02
    -0.35702E+02
    -0.35182E+02
    -0.37195E+02
    -0.36148E+02
    -0.38837E+02
    -0.54239E+02
    -0.51016E+02
    -0.53064E+02
    -0.49689E+02
    -0.25222E+02
    -0.23815E+02
    -0.33818E+02
    -0.31546E+02
    -0.39613E+02
    -0.38107E+02
    -0.37149E+02
    -0.34807E+02
    -0.38694E+02
    -0.28119E+02
    -0.26139E+02
    -0.29700E+02
    -0.40482E+02
    -0.38622E+02
    -0.40913E+02
    -0.39236E+02
    -0.42460E+02
    -0.39998E+02
    -0.45177E+02
    -0.41613E+02
    -0.40105E+02
    -0.42050E+02
    -0.42242E+02
    -0.40572E+02
    -0.43071E+02
    -0.40991E+02
    -0.44428E+02
    -0.42000E+02
    -0.47200E+02
    -0.43556E+02
    -0.31972E+02
    -0.29602E+02
    -0.34484E+02
    -0.31956E+02
    -0.37566E+02
    -0.34795E+02
    -0.38737E+02
    -0.40463E+02
    -0.38268E+02