# vtk DataFile Version 3.14.1
BMesh by KP LIAO
ASCII
DATASET UNSTRUCTURED_GRID
POINTS 	      8150 	FLOAT
    5.19681 	   2.72329 	   4.23118
    5.19578 	   2.59620 	   4.12100
    5.19481 	   2.52807 	   4.01703
    5.19313 	   2.49945 	   3.83578
    5.54407 	   2.49944 	   3.82841
    5.54779 	   2.81778 	   4.22770
    5.19482 	   2.47161 	   4.01715
    5.19579 	   2.40393 	   4.12142
    5.19682 	   2.27732 	   4.23214
    5.54780 	   2.18283 	   4.22908
    6.24976 	   2.82697 	   4.22115
    6.24604 	   2.49944 	   3.82188
    6.24977 	   2.17364 	   4.22257
    7.88397 	   2.49944 	   3.80664
    7.88770 	   2.17364 	   4.20733
    7.88769 	   2.82697 	   4.20591
    9.29163 	   2.82697 	   4.19285
    9.28791 	   2.49944 	   3.79358
    9.29164 	   2.17364 	   4.19427
    9.65129 	   2.49961 	   3.86820
    9.65127 	   2.49294 	   3.86560
    9.58129 	   2.49298 	   3.88732
    9.59957 	   2.49976 	   3.93735
    9.58176 	   2.48802 	   3.93754
    9.55536 	   2.48331 	   3.93110
    9.58059 	   2.49948 	   3.81165
    9.55397 	   2.49947 	   3.80443
    9.52315 	   2.47736 	   3.92582
    9.52197 	   2.49945 	   3.79856
    9.58129 	   2.50631 	   3.88729
    9.65127 	   2.50627 	   3.86557
    9.58176 	   2.51149 	   3.93749
    9.55536 	   2.51617 	   3.93103
    9.52315 	   2.52210 	   3.92572
    9.83427 	   2.82697 	   4.18780
    9.64261 	   2.82697 	   4.18958
    9.83244 	   2.49988 	   3.99118
    9.64045 	   2.49980 	   3.95672
    9.52562 	   2.82697 	   4.19067
    9.64263 	   2.17364 	   4.19100
    9.83428 	   2.17364 	   4.18922
    9.52563 	   2.17364 	   4.19209
    9.42970 	   2.17364 	   4.19298
    9.42969 	   2.82697 	   4.19157
    9.83428 	   2.50031 	   4.18851
    9.65107 	   2.49956 	   3.84420
    9.42597 	   2.49944 	   3.79229
    5.13632 	   2.51679 	   4.01884
    5.13577 	   2.52633 	   3.95909
    5.13470 	   2.49946 	   3.84399
    5.13577 	   2.47310 	   3.95920
    5.13632 	   2.48290 	   4.01892
    5.07734 	   2.47697 	   3.96614
    5.07771 	   2.49064 	   4.00611
    5.07783 	   2.49984 	   4.01942
    5.07771 	   2.50899 	   4.00607
    5.07734 	   2.52249 	   3.96604
    5.06728 	   2.49981 	   4.00619
    5.01884 	   2.52033 	   3.96659
    5.01921 	   2.49981 	   4.00663
    5.01884 	   2.47913 	   3.96668
    5.07634 	   2.49950 	   3.85950
    5.01809 	   2.49955 	   3.88587
    4.94143 	   2.49973 	   3.96736
    5.13830 	   2.69268 	   4.23179
    5.13831 	   2.30793 	   4.23262
    4.93924 	   2.50031 	   4.23405
    5.13731 	   2.57091 	   4.12539
    5.02528 	   2.50007 	   4.12658
    5.13732 	   2.42923 	   4.12569
    5.21524 	   2.73172 	   4.23049
    5.23386 	   2.73975 	   4.23005
    5.25265 	   2.74737 	   4.22983
    5.27161 	   2.75459 	   4.22980
    5.29072 	   2.76138 	   4.22988
    5.30997 	   2.76776 	   4.22997
    5.32935 	   2.77372 	   4.23001
    5.34886 	   2.77929 	   4.22995
    5.36846 	   2.78448 	   4.22978
    5.38815 	   2.78933 	   4.22952
    5.40792 	   2.79387 	   4.22921
    5.42775 	   2.79812 	   4.22888
    5.44763 	   2.80210 	   4.22858
    5.46757 	   2.80581 	   4.22832
    5.48755 	   2.80925 	   4.22811
    5.50759 	   2.81241 	   4.22794
    5.52767 	   2.81526 	   4.22781
    5.19670 	   2.70831 	   4.21997
    5.19660 	   2.69357 	   4.20846
    5.19649 	   2.67910 	   4.19661
    5.19637 	   2.66485 	   4.18449
    5.19626 	   2.65077 	   4.17218
    5.19614 	   2.63682 	   4.15972
    5.19602 	   2.62307 	   4.14703
    5.19590 	   2.60955 	   4.13411
    5.19566 	   2.58340 	   4.10814
    5.19554 	   2.57074 	   4.09514
    5.19542 	   2.55859 	   4.08167
    5.19528 	   2.54763 	   4.06721
    5.19514 	   2.53837 	   4.05162
    5.19498 	   2.53161 	   4.03480
    5.19463 	   2.52733 	   3.99739
    5.19445 	   2.52873 	   3.97779
    5.19427 	   2.53152 	   3.95832
    5.19409 	   2.53436 	   3.93886
    5.19391 	   2.53603 	   3.91929
    5.19372 	   2.53521 	   3.89964
    5.19354 	   2.53216 	   3.88023
    5.19337 	   2.52616 	   3.86154
    5.19321 	   2.51629 	   3.84459
    5.52457 	   2.49944 	   3.82849
    5.50506 	   2.49944 	   3.82858
    5.48555 	   2.49944 	   3.82873
    5.46604 	   2.49944 	   3.82892
    5.44653 	   2.49944 	   3.82918
    5.42702 	   2.49944 	   3.82950
    5.40752 	   2.49944 	   3.82985
    5.38801 	   2.49944 	   3.83017
    5.36850 	   2.49944 	   3.83044
    5.34899 	   2.49944 	   3.83059
    5.32948 	   2.49944 	   3.83063
    5.30997 	   2.49944 	   3.83059
    5.29046 	   2.49944 	   3.83055
    5.27096 	   2.49944 	   3.83067
    5.25145 	   2.49944 	   3.83114
    5.23197 	   2.49944 	   3.83210
    5.21252 	   2.49944 	   3.83363
    5.54762 	   2.80965 	   4.20951
    5.54746 	   2.79983 	   4.19216
    5.54731 	   2.78844 	   4.17581
    5.54716 	   2.77607 	   4.16017
    5.54702 	   2.76299 	   4.14512
    5.54689 	   2.74943 	   4.13051
    5.54675 	   2.73552 	   4.11622
    5.54662 	   2.72135 	   4.10220
    5.54649 	   2.70692 	   4.08844
    5.54637 	   2.69259 	   4.07458
    5.54623 	   2.67871 	   4.06027
    5.54609 	   2.66531 	   4.04550
    5.54595 	   2.65232 	   4.03038
    5.54581 	   2.63980 	   4.01486
    5.54566 	   2.62770 	   3.99901
    5.54551 	   2.61575 	   3.98306
    5.54537 	   2.60380 	   3.96710
    5.54522 	   2.59187 	   3.95112
    5.54507 	   2.57994 	   3.93514
    5.54492 	   2.56830 	   3.91896
    5.54476 	   2.55749 	   3.90222
    5.54460 	   2.54829 	   3.88454
    5.54442 	   2.54107 	   3.86596
    5.54426 	   2.53203 	   3.84826
    5.54413 	   2.51809 	   3.83417
    5.19463 	   2.47226 	   3.99751
    5.19445 	   2.47078 	   3.97791
    5.19427 	   2.46791 	   3.95846
    5.19409 	   2.46498 	   3.93901
    5.19391 	   2.46323 	   3.91944
    5.19372 	   2.46396 	   3.89980
    5.19354 	   2.46693 	   3.88037
    5.19337 	   2.47285 	   3.86165
    5.19321 	   2.48264 	   3.84466
    5.19567 	   2.41668 	   4.10850
    5.19554 	   2.42928 	   4.09545
    5.19542 	   2.44138 	   4.08192
    5.19528 	   2.45227 	   4.06742
    5.19514 	   2.46146 	   4.05179
    5.19498 	   2.46815 	   4.03494
    5.19671 	   2.29225 	   4.22087
    5.19660 	   2.30694 	   4.20929
    5.19649 	   2.32136 	   4.19738
    5.19638 	   2.33556 	   4.18520
    5.19626 	   2.34959 	   4.17283
    5.19615 	   2.36348 	   4.16031
    5.19603 	   2.37717 	   4.14756
    5.19591 	   2.39064 	   4.13458
    5.21525 	   2.26889 	   4.23149
    5.23387 	   2.26086 	   4.23109
    5.25266 	   2.25323 	   4.23090
    5.27162 	   2.24602 	   4.23090
    5.29073 	   2.23923 	   4.23101
    5.30998 	   2.23285 	   4.23113
    5.32937 	   2.22689 	   4.23120
    5.34887 	   2.22133 	   4.23116
    5.36847 	   2.21613 	   4.23101
    5.38816 	   2.21128 	   4.23077
    5.40793 	   2.20675 	   4.23048
    5.42776 	   2.20249 	   4.23017
    5.44764 	   2.19851 	   4.22989
    5.46758 	   2.19480 	   4.22964
    5.48757 	   2.19136 	   4.22945
    5.50760 	   2.18820 	   4.22930
    5.52768 	   2.18535 	   4.22918
    5.54763 	   2.19088 	   4.21085
    5.54747 	   2.20062 	   4.19346
    5.54732 	   2.21195 	   4.17706
    5.54717 	   2.22425 	   4.16137
    5.54703 	   2.23726 	   4.14626
    5.54690 	   2.25076 	   4.13159
    5.54676 	   2.26460 	   4.11724
    5.54663 	   2.27871 	   4.10316
    5.54650 	   2.29309 	   4.08934
    5.54637 	   2.30736 	   4.07542
    5.54624 	   2.32118 	   4.06104
    5.54610 	   2.33451 	   4.04622
    5.54596 	   2.34743 	   4.03104
    5.54582 	   2.35989 	   4.01547
    5.54567 	   2.37191 	   3.99957
    5.54552 	   2.38380 	   3.98356
    5.54537 	   2.39568 	   3.96755
    5.54522 	   2.40754 	   3.95152
    5.54507 	   2.41940 	   3.93549
    5.54492 	   2.43097 	   3.91926
    5.54476 	   2.44171 	   3.90247
    5.54460 	   2.45083 	   3.88475
    5.54443 	   2.45797 	   3.86614
    5.54426 	   2.46693 	   3.84840
    5.54413 	   2.48082 	   3.83425
    5.19682 	   2.30355 	   4.23208
    5.19682 	   2.32979 	   4.23203
    5.19681 	   2.35602 	   4.23197
    5.19681 	   2.38225 	   4.23191
    5.19681 	   2.40849 	   4.23186
    5.19681 	   2.43472 	   4.23180
    5.19681 	   2.46096 	   4.23174
    5.19681 	   2.48719 	   4.23169
    5.19681 	   2.51342 	   4.23163
    5.19681 	   2.53966 	   4.23157
    5.19681 	   2.56589 	   4.23152
    5.19681 	   2.59212 	   4.23146
    5.19681 	   2.61836 	   4.23140
    5.19681 	   2.64459 	   4.23135
    5.19681 	   2.67082 	   4.23129
    5.19681 	   2.69706 	   4.23123
    5.54780 	   2.24632 	   4.22894
    5.54780 	   2.30982 	   4.22881
    5.54780 	   2.37331 	   4.22867
    5.54780 	   2.43681 	   4.22853
    5.54780 	   2.50031 	   4.22839
    5.54780 	   2.56380 	   4.22825
    5.54779 	   2.62730 	   4.22812
    5.54779 	   2.69079 	   4.22798
    5.54779 	   2.75429 	   4.22784
    6.24954 	   2.82692 	   4.19781
    6.24933 	   2.82687 	   4.17446
    6.24911 	   2.82682 	   4.15112
    6.24889 	   2.82677 	   4.12778
    6.24867 	   2.82672 	   4.10443
    6.24846 	   2.82638 	   4.08109
    6.24824 	   2.82460 	   4.05782
    6.24803 	   2.82055 	   4.03484
    6.24782 	   2.81357 	   4.01259
    6.24762 	   2.80323 	   3.99169
    6.24744 	   2.79044 	   3.97217
    6.24727 	   2.77613 	   3.95373
    6.24711 	   2.76077 	   3.93615
    6.24695 	   2.74486 	   3.91907
    6.24679 	   2.72868 	   3.90224
    6.24664 	   2.71229 	   3.88562
    6.24649 	   2.69563 	   3.86927
    6.24634 	   2.67835 	   3.85357
    6.24621 	   2.65959 	   3.83971
    6.24611 	   2.63867 	   3.82944
    6.24606 	   2.61607 	   3.82375
    6.24604 	   2.59282 	   3.82182
    6.24604 	   2.56948 	   3.82173
    6.24604 	   2.54613 	   3.82178
    6.24604 	   2.52278 	   3.82183
    5.58661 	   2.82172 	   4.22750
    5.62553 	   2.82445 	   4.22724
    5.66451 	   2.82612 	   4.22690
    5.70352 	   2.82694 	   4.22649
    5.74254 	   2.82714 	   4.22601
    5.78155 	   2.82697 	   4.22551
    5.82057 	   2.82666 	   4.22502
[...]
CELL_DATA 	      9403
SCALARS 	cell_scalars 	FLOAT 	         1
LOOKUP_TABLE 	DEFAULT
    -0.54236E+02
    -0.24968E+02
    -0.37990E+02
    -0.52834E+02
    -0.50537E+02
    -0.50689E+02
    -0.54323E+02
    -0.37347E+02
    -0.34792E+02
    -0.55552E+02
    -0.50245E+02
    -0.42909E+02
    -0.51991E+02
    -0.54714E+02
    -0.58686E+02
    -0.56291E+02
    -0.44661E+02
    -0.48105E+02
    -0.70597E+02
    -0.67018E+02
    -0.66132E+02
    -0.71125E+02
    -0.71360E+02
    -0.69449E+02
    -0.67299E+02
    -0.65262E+02
    -0.64519E+02
    -0.67626E+02
    -0.67555E+02
    -0.65326E+02
    -0.65037E+02
    -0.65274E+02
    -0.63730E+02
    -0.64690E+02
    -0.65852E+02
    -0.64046E+02
    -0.75570E+02
    -0.73049E+02
    -0.72350E+02
    -0.72738E+02
    -0.71139E+02
    -0.70577E+02
    -0.71339E+02
    -0.69157E+02
    -0.67957E+02
    -0.70722E+02
    -0.68254E+02
    -0.66411E+02
    -0.71063E+02
    -0.70060E+02
    -0.65080E+02
    -0.65768E+02
    -0.69321E+02
    -0.68375E+02
    -0.78404E+02
    -0.77656E+02
    -0.77896E+02
    -0.76941E+02
    -0.75424E+02
    -0.74199E+02
    -0.75163E+02
    -0.74574E+02
    -0.72359E+02
    -0.72029E+02
    -0.70096E+02
    -0.68356E+02
    -0.70927E+02
    -0.70513E+02
    -0.69519E+02
    -0.71506E+02
    -0.71409E+02
    -0.68543E+02
    -0.76445E+02
    -0.76986E+02
    -0.77725E+02
    -0.77561E+02
    -0.76684E+02
    -0.75905E+02
    -0.77630E+02
    -0.76719E+02
    -0.74777E+02
    -0.74869E+02
    -0.73145E+02
    -0.72484E+02
    -0.73416E+02
    -0.71759E+02
    -0.71651E+02
    -0.74547E+02
    -0.72519E+02
    -0.70806E+02
    -0.78472E+02
    -0.78210E+02
    -0.77621E+02
    -0.77687E+02
    -0.76420E+02
    -0.75985E+02
    -0.77514E+02
    -0.76485E+02
    -0.76044E+02
    -0.76134E+02
    -0.74856E+02
    -0.77132E+02
    -0.78978E+02
    -0.74629E+02
    -0.73905E+02
    -0.76268E+02
    -0.73705E+02
    -0.72004E+02
    -0.79896E+02
    -0.80048E+02
    -0.79800E+02
    -0.78981E+02
    -0.78856E+02
    -0.77526E+02
    -0.77362E+02
    -0.76708E+02
    -0.76519E+02
    -0.76415E+02
    -0.75796E+02
    -0.77286E+02
    -0.76034E+02
    -0.75347E+02
    -0.77502E+02
    -0.77855E+02
    -0.74203E+02
    -0.73442E+02
    -0.77891E+02
    -0.80349E+02
    -0.79847E+02
    -0.78836E+02
    -0.79747E+02
    -0.78491E+02
    -0.77973E+02
    -0.77833E+02
    -0.78474E+02
    -0.79486E+02
    -0.78384E+02
    -0.78982E+02
    -0.77136E+02
    -0.76963E+02
    -0.80204E+02
    -0.80097E+02
    -0.75821E+02
    -0.77379E+02
    -0.78747E+02
    -0.81368E+02
    -0.80196E+02
    -0.79195E+02
    -0.78893E+02
    -0.78251E+02
    -0.79421E+02
    -0.79651E+02
    -0.80669E+02
    -0.83589E+02
    -0.82151E+02
    -0.83552E+02
    -0.84571E+02
    -0.82590E+02
    -0.83230E+02
    -0.80574E+02
    -0.78438E+02
    -0.81567E+02
    -0.77395E+02
    -0.80314E+02
    -0.81987E+02
    -0.81691E+02
    -0.81172E+02
    -0.80872E+02
    -0.83610E+02
    -0.83786E+02
    -0.82488E+02
    -0.85280E+02
    -0.84813E+02
    -0.89098E+02
    -0.97259E+02
    -0.90017E+02
    -0.87123E+02
    -0.83945E+02
    -0.81667E+02
    -0.82032E+02
    -0.74645E+02
    -0.77688E+02
    -0.79285E+02
    -0.80834E+02
    -0.82650E+02
    -0.84028E+02
    -0.85881E+02
    -0.89521E+02
    -0.87944E+02
    -0.87639E+02
    -0.88157E+02
    -0.88559E+02
    -0.89290E+02
    -0.83618E+02
    -0.82172E+02
    -0.82026E+02
    -0.74912E+02
    -0.73810E+02
    -0.72957E+02
    -0.75052E+02
    -0.75189E+02
    -0.80486E+02
    -0.79926E+02
    -0.77707E+02
    -0.77611E+02
    -0.81344E+02
    -0.82503E+02
    -0.80664E+02
    -0.78357E+02
    -0.73613E+02
    -0.68534E+02
    -0.73491E+02
    -0.78228E+02
    -0.62000E+02
    -0.49331E+02
    -0.42092E+02
    -0.59671E+02
    -0.60316E+02
    -0.62992E+02
    -0.60966E+02
    -0.62978E+02
    -0.67594E+02
    -0.54227E+02
    -0.50883E+02
    -0.66837E+02
    -0.67569E+02
    -0.45655E+02
    -0.29591E+02
    -0.24166E+02
    -0.21282E+02
    -0.26768E+02
    -0.20754E+02
    -0.85866E+01
     0.24773E+02
    -0.19189E+02
    -0.32654E+02
    -0.22771E+02
    -0.75485E+01
    -0.31074E+02
    -0.25417E+02
     0.26443E+01
    -0.51107E+01
    -0.50805E+01
     0.12682E+02
     0.13015E+02
     0.33053E+02
     0.67874E+02
     0.69713E+02
     0.65746E+02
     0.79587E+02
     0.93898E+02
     0.11444E+03
     0.59429E+01
     0.69835E+01
     0.53295E+02
     0.50709E+02
     0.21649E+02
     0.62589E+02
     0.93732E+02
     0.75695E+02
     0.97165E+02
     0.13420E+03
     0.12915E+03
     0.14589E+03
     0.18014E+03
     0.16823E+03
     0.18219E+03
     0.21909E+03
     0.23228E+03
     0.23696E+03
     0.61998E+02
     0.10156E+03
     0.16822E+03
     0.16516E+03
     0.13869E+03
     0.16367E+03
     0.21657E+03
     0.22650E+03
     0.22400E+03
     0.25746E+03
     0.26170E+03
     0.27524E+03
     0.30889E+03
     0.29130E+03
     0.32419E+03
     0.36009E+03
     0.35766E+03
     0.37925E+03
     0.18950E+03
     0.25224E+03
     0.30358E+03
     0.31067E+03
     0.28384E+03
     0.28498E+03
     0.31276E+03
     0.35413E+03
     0.38680E+03
     0.37847E+03
     0.37625E+03
     0.41310E+03
     0.44556E+03
     0.42817E+03
     0.46927E+03
     0.47900E+03
     0.50168E+03
     0.51857E+03
     0.35884E+03
     0.41794E+03
     0.46950E+03
     0.46115E+03
     0.41756E+03
     0.42302E+03
     0.44926E+03
     0.47310E+03
     0.52060E+03
     0.54113E+03
     0.52222E+03
     0.54990E+03
     0.56530E+03
     0.57924E+03
     0.61084E+03
     0.59945E+03
     0.65331E+03
     0.65543E+03
     0.53922E+03
     0.59601E+03
     0.65450E+03
     0.60626E+03
     0.53972E+03
     0.56773E+03
     0.60869E+03
     0.62300E+03
     0.64346E+03
     0.65444E+03
     0.67945E+03
     0.72766E+03
     0.71181E+03
     0.73512E+03
     0.74813E+03
     0.75214E+03
     0.80014E+03
     0.79740E+03
     0.70683E+03
     0.75798E+03
     0.80499E+03
     0.72380E+03
     0.66851E+03
     0.73354E+03
     0.78142E+03
     0.79188E+03
     0.80001E+03
     0.80238E+03
     0.82405E+03
     0.85391E+03
     0.86513E+03
     0.91446E+03
     0.90629E+03
     0.90837E+03
     0.92942E+03
     0.94954E+03
     0.86597E+03
     0.89372E+03
     0.89390E+03
     0.83008E+03
     0.83904E+03
     0.91796E+03
     0.95705E+03
     0.96852E+03
     0.97762E+03
     0.98384E+03
     0.99644E+03
     0.10115E+04
     0.10235E+04
     0.10507E+04
     0.10629E+04
     0.10743E+04
     0.10951E+04
     0.11164E+04
     0.10240E+04
     0.10302E+04
     0.99926E+03
     0.98866E+03
     0.10302E+04
     0.10866E+04
     0.11216E+04
     0.11401E+04
     0.11588E+04
     0.11718E+04
     0.11845E+04
     0.11973E+04
     0.12104E+04
     0.12262E+04
     0.12387E+04
     0.12519E+04
     0.12688E+04
     0.12831E+04
     0.11933E+04
     0.12027E+04
     0.11956E+04
     0.11975E+04
     0.12174E+04
     0.12548E+04
     0.12883E+04
     0.13074E+04
     0.13266E+04
     0.13425E+04
     0.13568E+04
     0.13702E+04
     0.13841E+04
     0.13990E+04
     0.14136E+04
     0.14305E+04
     0.14486E+04
     0.14660E+04
     0.13630E+04
     0.13819E+04
     0.13962E+04
     0.14119E+04
     0.14316E+04
     0.14544E+04
     0.14738E+04
     0.14870E+04
     0.15012E+04
     0.15165E+04
     0.15306E+04
     0.15437E+04
     0.15570E+04
     0.15713E+04
     0.15860E+04
     0.16009E+04
     0.16148E+04
     0.16275E+04
     0.15048E+04
     0.15427E+04
     0.15731E+04
     0.15979E+04
     0.16192E+04
     0.16373E+04
     0.16526E+04
     0.16660E+04
     0.16806E+04
     0.16958E+04
     0.17089E+04
     0.17199E+04
     0.17305E+04
     0.17423E+04
     0.17547E+04
     0.17675E+04
     0.17788E+04
     0.17877E+04
     0.16414E+04
     0.16774E+04
     0.17105E+04
     0.17383E+04
     0.17592E+04
     0.17747E+04
     0.17871E+04
     0.17999E+04
     0.18156E+04
     0.18323E+04
     0.18478E+04
     0.18572E+04
     0.18644E+04
     0.18750E+04
     0.18866E+04
     0.18996E+04
     0.19094E+04
     0.19145E+04
    -0.43838E+02
    -0.48688E+02
    -0.58266E+02
    -0.55843E+02
    -0.51256E+02
    -0.50530E+02
    -0.52433E+02
    -0.59232E+02
    -0.56365E+02
    -0.43280E+02
    -0.56615E+02
    -0.65337E+02
    -0.53776E+02
    -0.56693E+02
    -0.60612E+02
    -0.80405E+02
    -0.89040E+02
    -0.74272E+02
    -0.64085E+02
    -0.64453E+02
    -0.63118E+02
    -0.63510E+02
    -0.65623E+02
    -0.65508E+02
    -0.66119E+02
    -0.70341E+02
    -0.68537E+02
    -0.66742E+02
    -0.69875E+02
    -0.68179E+02
    -0.67243E+02
    -0.71486E+02
    -0.72447E+02
    -0.69857E+02
    -0.72856E+02
    -0.72173E+02
    -0.69615E+02
    -0.67567E+02
    -0.64434E+02
    -0.66504E+02
    -0.71068E+02
    -0.70172E+02
    -0.67188E+02
    -0.69777E+02
    -0.70880E+02
    -0.68902E+02
    -0.70322E+02
    -0.71198E+02
    -0.69818E+02
    -0.71135E+02
    -0.72749E+02
    -0.72393E+02
    -0.72951E+02
    -0.74302E+02
    -0.69456E+02
    -0.71277E+02
    -0.70975E+02
    -0.69208E+02
    -0.70960E+02
    -0.73214E+02
    -0.71472E+02
    -0.71744E+02
    -0.72263E+02
    -0.72075E+02
    -0.74421E+02
    -0.74870E+02
    -0.73479E+02
    -0.74765E+02
    -0.76246E+02
    -0.77531E+02
    -0.76250E+02
    -0.76508E+02
    -0.70151E+02
    -0.71896E+02
    -0.72878E+02
    -0.71027E+02
    -0.72400E+02
    -0.74095E+02
    -0.72640E+02
    -0.73785E+02
    -0.74923E+02
    -0.74549E+02
    -0.76625E+02
    -0.76816E+02
    -0.75095E+02
    -0.75886E+02
    -0.76380E+02
    -0.77239E+02
    -0.76659E+02
    -0.75624E+02
    -0.69844E+02
    -0.72865E+02
    -0.74380E+02
    -0.72608E+02
    -0.74191E+02
    -0.74687E+02
    -0.73332E+02
    -0.74071E+02
    -0.76042E+02
    -0.75662E+02
    -0.75969E+02
    -0.77266E+02
    -0.76159E+02
    -0.76248E+02
    -0.77401E+02
    -0.77731E+02
    -0.78731E+02
    -0.78353E+02
    -0.70920E+02
    -0.73336E+02
    -0.75401E+02
    -0.74999E+02
    -0.74988E+02
    -0.75577E+02
    -0.76424E+02
    -0.75718E+02
    -0.76534E+02
    -0.76604E+02
    -0.76720E+02
    -0.77063E+02
    -0.77404E+02
    -0.79077E+02
    -0.78878E+02
    -0.80102E+02
    -0.80178E+02
    -0.79219E+02
    -0.74803E+02
    -0.75009E+02
    -0.77713E+02
    -0.78489E+02
    -0.77292E+02
    -0.77605E+02
    -0.78408E+02
    -0.78503E+02
    -0.79586E+02
    -0.78580E+02
    -0.77996E+02
    -0.77231E+02
    -0.79266E+02
    -0.80998E+02
    -0.78185E+02
    -0.80146E+02
    -0.80285E+02
    -0.76971E+02
    -0.79882E+02
    -0.77899E+02
    -0.79740E+02
    -0.82380E+02
    -0.82974E+02
    -0.84853E+02
    -0.82378E+02
    -0.81801E+02
    -0.83106E+02
    -0.80366E+02
    -0.80192E+02
    -0.79210E+02
    -0.78128E+02
    -0.78607E+02
    -0.78795E+02
    -0.80372E+02
    -0.81039E+02
    -0.77772E+02
    -0.79494E+02
    -0.80611E+02
    -0.84792E+02
    -0.85936E+02
    -0.88554E+02
    -0.95476E+02
    -0.88349E+02
    -0.85098E+02
    -0.84630E+02
    -0.82016E+02
    -0.84593E+02
    -0.84263E+02
    -0.80462E+02
    -0.79836E+02
    -0.81132E+02
    -0.81507E+02
    -0.80194E+02
    -0.78116E+02
    -0.71681E+02
    -0.73732E+02
    -0.83613E+02
    -0.82417E+02
    -0.83435E+02
    -0.88525E+02
    -0.88160E+02
    -0.89346E+02
    -0.87947E+02
    -0.87444E+02
    -0.90359E+02
    -0.87910E+02
    -0.84048E+02
    -0.81967E+02
    -0.80274E+02
    -0.79807E+02
    -0.78604E+02
    -0.75947E+02
    -0.48742E+02
    -0.50951E+02
    -0.61756E+02
    -0.77272E+02
    -0.74816E+02
    -0.68912E+02
    -0.74316E+02
    -0.81439E+02
    -0.82595E+02
    -0.82958E+02
    -0.83118E+02
    -0.79800E+02
    -0.77165E+02
    -0.77893E+02
    -0.80202E+02
    -0.75758E+02
    -0.75522E+02
    -0.74624E+02
     0.22929E+02
    -0.92143E+01
    -0.21395E+02
    -0.27194E+02
    -0.22878E+02
    -0.28311E+02
    -0.32009E+02
    -0.43902E+02
    -0.66430E+02
    -0.68100E+02
    -0.52651E+02
    -0.56722E+02
    -0.66668E+02
    -0.61253E+02
    -0.62037E+02
    -0.62954E+02
    -0.59806E+02
    -0.61061E+02
     0.11331E+03
     0.90027E+02
     0.75687E+02
     0.63355E+02
     0.71657E+02
     0.71377E+02
     0.33455E+02
     0.14750E+02
     0.13741E+02
    -0.53589E+01
    -0.68842E+01
    -0.77281E+00
    -0.26440E+02
    -0.32998E+02
    -0.10595E+02
    -0.23766E+02
    -0.33892E+02
    -0.19710E+02
     0.23522E+03
     0.22647E+03
     0.21468E+03
     0.18209E+03
     0.18113E+03
     0.19001E+03
     0.14677E+03
     0.12994E+03
     0.13665E+03
     0.99559E+02
     0.76239E+02
     0.92315E+02
     0.61268E+02
     0.20002E+02
     0.48037E+02
     0.53552E+02
     0.12479E+02
     0.96026E+01
     0.38137E+03
     0.35588E+03
     0.35978E+03
     0.32147E+03
     0.29605E+03
     0.31227E+03
     0.27549E+03
     0.26491E+03
     0.26125E+03
     0.22462E+03
     0.22441E+03
     0.21690E+03
     0.16455E+03
     0.13499E+03
     0.16286E+03
     0.17506E+03
     0.11037E+03
     0.67075E+02
     0.52691E+03
     0.50324E+03
     0.48199E+03
     0.46728E+03
     0.43144E+03
     0.44589E+03
     0.41232E+03
     0.38099E+03
     0.38454E+03
     0.39047E+03
     0.35658E+03
     0.31286E+03
     0.28665E+03
     0.27060E+03
     0.30464E+03
     0.31712E+03
     0.26161E+03
     0.19592E+03
     0.65556E+03
     0.65098E+03
     0.60507E+03
     0.61232E+03
     0.58617E+03
     0.57027E+03
     0.54705E+03
     0.52716E+03
     0.55099E+03
     0.52766E+03
     0.47319E+03
     0.44833E+03
     0.42470E+03
     0.40383E+03
     0.44616E+03
     0.48228E+03
     0.42858E+03
     0.36801E+03
     0.79148E+03
     0.79779E+03
     0.75812E+03
     0.75152E+03
     0.73332E+03
     0.70772E+03
     0.72024E+03
     0.68812E+03
     0.66934E+03
     0.64648E+03
     0.61964E+03
     0.60693E+03
     0.57455E+03
     0.52426E+03
     0.58015E+03
     0.66115E+03
     0.60646E+03
     0.54671E+03
     0.94739E+03
     0.93055E+03
     0.91014E+03
     0.90757E+03
     0.91575E+03
     0.86301E+03
     0.84955E+03
     0.82507E+03
     0.80579E+03
     0.79918E+03
     0.78796E+03
     0.78027E+03
     0.74552E+03
     0.66460E+03
     0.69877E+03
     0.80452E+03
     0.76985E+03
     0.71491E+03
     0.11176E+04
     0.10961E+04
     0.10766E+04
     0.10657E+04
     0.10555E+04
     0.10242E+04
     0.10083E+04
     0.99311E+03
     0.98235E+03
     0.97676E+03
     0.96696E+03
     0.95743E+03
     0.92936E+03
     0.85453E+03
     0.82742E+03
     0.88866E+03
     0.90381E+03
     0.87210E+03
     0.12831E+04
     0.12684E+04
     0.12537E+04
     0.12413E+04
     0.12277E+04
     0.12095E+04
     0.11951E+04
     0.11828E+04
     0.11723E+04
     0.11621E+04
     0.11450E+04
     0.11285E+04
     0.11018E+04
     0.10501E+04
     0.99001E+03
     0.98481E+03
     0.10244E+04
     0.10228E+04
     0.14693E+04
     0.14538E+04
     0.14367E+04
     0.14199E+04
     0.14023E+04
     0.13847E+04
     0.13697E+04
     0.13562E+04
     0.13435E+04
     0.13300E+04
     0.13113E+04
     0.12947E+04
     0.12674E+04
     0.12223E+04
     0.11759E+04
     0.11651E+04
     0.11881E+04
     0.11868E+04
     0.16301E+04
     0.16171E+04
     0.16024E+04
     0.15872E+04
     0.15714E+04
     0.15557E+04
     0.15412E+04
     0.15277E+04
     0.15142E+04
     0.14993E+04
     0.14840E+04
     0.14707E+04
     0.14529E+04
     0.14294E+04
     0.14041E+04
     0.13840E+04
     0.13735E+04
     0.13572E+04
     0.17878E+04
     0.17779E+04
     0.17653E+04
     0.17517E+04
     0.17391E+04
     0.17273E+04
     0.17167E+04
     0.17059E+04
     0.16931E+04
     0.16782E+04
     0.16634E+04
     0.16511E+04
     0.16370E+04
     0.16184E+04
     0.15964E+04
     0.15717E+04
     0.15435E+04
     0.15071E+04
     0.19154E+04
     0.19100E+04
     0.18997E+04
     0.18864E+04
     0.18747E+04
     0.18642E+04
     0.18572E+04
     0.18482E+04
     0.18328E+04
     0.18157E+04
     0.17997E+04
     0.17879E+04
     0.17764E+04
     0.17597E+04
     0.17373E+04
     0.17093E+04
     0.16765E+04
     0.16408E+04
    -0.18037E+02
    -0.19693E+02
    -0.26762E+02
    -0.22435E+02
    -0.25975E+02
    -0.19367E+02
    -0.67353E+02
    -0.55013E+02
    -0.56964E+02
    -0.91436E+02
    -0.57854E+02
    -0.69452E+02
    -0.39923E+02
    -0.56084E+02
    -0.40613E+02
    -0.36894E+02
    -0.13692E+02
     0.15970E+01
    -0.46382E+01
    -0.29430E+02
    -0.29890E+02
    -0.44535E+02
    -0.43494E+02
    -0.48834E+02
    -0.32590E+02
    -0.36857E+02
    -0.37989E+02
    -0.49130E+02
    -0.48618E+02
    -0.69888E+02
    -0.27956E+02
    -0.41779E+02
    -0.38426E+02
    -0.51596E+02
    -0.26230E+02
    -0.40144E+02
    -0.37835E+02
    -0.45886E+02
    -0.32900E+02
    -0.39940E+02
    -0.30527E+02
    -0.36947E+02
    -0.27792E+02
    -0.22314E+02
    -0.18925E+02
    -0.37370E+02
    -0.38262E+02
    -0.45797E+02
    -0.25255E+02
    -0.14878E+02
     0.13270E+02
    -0.19655E+02
    -0.28859E+02
    -0.44461E+02
    -0.32213E+02
    -0.41772E+02
    -0.26098E+02
    -0.34218E+02
    -0.24839E+02
    -0.35723E+02
    -0.31295E+02
    -0.40709E+02
    -0.35694E+02
    -0.51982E+02
    -0.39462E+02
    -0.47942E+02
    -0.30171E+02
    -0.31669E+02
    -0.21487E+02
    -0.51026E+02
    -0.27239E+02
    -0.22737E+02
    -0.17704E+02
    -0.17307E+02
    -0.16006E+02
    -0.15665E+02
    -0.15130E+02
    -0.14940E+02
    -0.14114E+02
    -0.13576E+02
    -0.12873E+02
    -0.13998E+02
    -0.13541E+02
    -0.13348E+02
    -0.13032E+02
    -0.13659E+02
    -0.14222E+02
    -0.14402E+02
    -0.14016E+02
    -0.13767E+02
    -0.13757E+02
    -0.13761E+02
    -0.13490E+02
    -0.13573E+02
    -0.13350E+02
    -0.13839E+02
    -0.14370E+02
    -0.15363E+02
    -0.15566E+02
    -0.19554E+02
    -0.65025E+02
    -0.39524E+02
    -0.19408E+02
    -0.21927E+02
    -0.28688E+02
    -0.25477E+02
    -0.22071E+02
    -0.22289E+02
    -0.19512E+02
    -0.24482E+02
    -0.19339E+02
    -0.25936E+02
    -0.21009E+02
    -0.34177E+02
    -0.24095E+02
    -0.15316E+02
    -0.15124E+02
    -0.14834E+02
    -0.15764E+02
    -0.18127E+02
    -0.16470E+02
    -0.20264E+02
    -0.17813E+02
    -0.19348E+02
    -0.17731E+02
    -0.23594E+02
    -0.17311E+02
    -0.20043E+02
    -0.20829E+02
    -0.20402E+02
    -0.19149E+02
    -0.18881E+02
    -0.18592E+02
    -0.18307E+02
    -0.17396E+02
    -0.19512E+02
    -0.17167E+02
    -0.20422E+02
    -0.16972E+02
    -0.21721E+02
    -0.18400E+02
    -0.21251E+02
    -0.19178E+02
    -0.20586E+02
    -0.18751E+02
    -0.25572E+02
    -0.27302E+02
    -0.26825E+02
    -0.25048E+02
    -0.25481E+02
    -0.24526E+02
    -0.24534E+02
    -0.23799E+02
    -0.22759E+02
    -0.22716E+02
    -0.20443E+02
    -0.20171E+02
    -0.23320E+02
    -0.20535E+02
    -0.17784E+02
    -0.19429E+02
    -0.77100E+00
    -0.11508E+02
    -0.14372E+02
    -0.14003E+02
    -0.13461E+02
    -0.13821E+02
    -0.13038E+02
    -0.12772E+02
    -0.12970E+02
    -0.13195E+02
    -0.13198E+02
    -0.12796E+02
    -0.13422E+02
    -0.12984E+02
    -0.13300E+02
    -0.13104E+02
    -0.13022E+02
    -0.12783E+02
    -0.12940E+02
    -0.12725E+02
    -0.12884E+02
    -0.12815E+02
    -0.13489E+02
    -0.13150E+02
    -0.13852E+02
    -0.13383E+02
    -0.13866E+02
    -0.13218E+02
    -0.14840E+02
    -0.13263E+02
    -0.15802E+02
    -0.24391E+02
    -0.14191E+02
    -0.42028E+02
    -0.27132E+02
    -0.23080E+02
    -0.22570E+02
    -0.18600E+02
    -0.18715E+02
    -0.15952E+02
    -0.14676E+02
    -0.18851E+02
    -0.18259E+02
    -0.18248E+02
    -0.23082E+02
    -0.23001E+02
    -0.23400E+02
    -0.15558E+02
    -0.14838E+02
    -0.15710E+02
    -0.14647E+02
    -0.16558E+02
    -0.15267E+02
    -0.20641E+02
    -0.16727E+02
    -0.14686E+02
    -0.15510E+02
    -0.15194E+02
    -0.14538E+02
    -0.15923E+02
    -0.14990E+02
    -0.15368E+02
    -0.14872E+02
    -0.15396E+02
    -0.14860E+02
    -0.22529E+02
    -0.22707E+02
    -0.21061E+02
    -0.21145E+02
    -0.18780E+02
    -0.19482E+02
    -0.17636E+02
    -0.17126E+02
    -0.17372E+02