# vtk DataFile Version 3.14.1
BMesh by KP LIAO
ASCII
DATASET UNSTRUCTURED_GRID
POINTS 	      8150 	FLOAT
    5.19541 	   2.72299 	   4.21250
    5.19540 	   2.59614 	   4.10206
    5.19539 	   2.52823 	   3.99794
    5.19538 	   2.49999 	   3.81662
    5.54638 	   2.49998 	   3.81249
    5.54641 	   2.81749 	   4.21247
    5.19539 	   2.47176 	   3.99794
    5.19540 	   2.40387 	   4.10207
    5.19541 	   2.27702 	   4.21253
    5.54641 	   2.18253 	   4.21251
    6.24841 	   2.82667 	   4.21242
    6.24838 	   2.49998 	   3.81244
    6.24841 	   2.17334 	   4.21246
    7.88638 	   2.49998 	   3.81232
    7.88641 	   2.17334 	   4.21234
    7.88641 	   2.82667 	   4.21231
    9.29041 	   2.82667 	   4.21221
    9.29038 	   2.49998 	   3.81223
    9.29041 	   2.17334 	   4.21224
    9.65305 	   2.49999 	   3.89020
    9.65305 	   2.49332 	   3.88759
    9.58288 	   2.49332 	   3.90866
    9.60070 	   2.49999 	   3.95887
    9.58289 	   2.48826 	   3.95887
    9.55655 	   2.48356 	   3.95218
    9.58288 	   2.49999 	   3.83300
    9.55633 	   2.49999 	   3.82554
    9.52439 	   2.47762 	   3.94658
    9.52438 	   2.49999 	   3.81937
    9.58288 	   2.50666 	   3.90866
    9.65305 	   2.50666 	   3.88758
    9.58289 	   2.51173 	   3.95887
    9.55655 	   2.51642 	   3.95218
    9.52439 	   2.52237 	   3.94658
    9.83308 	   2.82667 	   4.21217
    9.64141 	   2.82667 	   4.21218
    9.83306 	   2.50000 	   4.01485
    9.64139 	   2.49999 	   3.97861
    9.52441 	   2.82667 	   4.21219
    9.64141 	   2.17334 	   4.21222
    9.83308 	   2.17334 	   4.21221
    9.52441 	   2.17334 	   4.21223
    9.42848 	   2.17334 	   4.21223
    9.42848 	   2.82667 	   4.21220
    9.83308 	   2.50001 	   4.21219
    9.65305 	   2.49999 	   3.86620
    9.42845 	   2.49998 	   3.81222
    5.13689 	   2.51694 	   3.99918
    5.13689 	   2.52661 	   3.93945
    5.13688 	   2.49999 	   3.82429
    5.13689 	   2.47338 	   3.93945
    5.13689 	   2.48305 	   3.99919
    5.07839 	   2.47723 	   3.94586
    5.07839 	   2.49082 	   3.98586
    5.07839 	   2.50000 	   3.99919
    5.07839 	   2.50917 	   3.98586
    5.07839 	   2.52275 	   3.94586
    5.06797 	   2.50000 	   3.98586
    5.01989 	   2.52059 	   3.94586
    5.01989 	   2.50000 	   3.98586
    5.01989 	   2.47939 	   3.94586
    5.07838 	   2.49999 	   3.83926
    5.01989 	   2.49999 	   3.86509
    4.94248 	   2.49999 	   3.94587
    5.13690 	   2.69238 	   4.21251
    5.13690 	   2.30763 	   4.21253
    4.93782 	   2.50001 	   4.21253
    5.13690 	   2.57084 	   4.10585
    5.02486 	   2.50000 	   4.10586
    5.13690 	   2.42916 	   4.10586
    5.21385 	   2.73143 	   4.21201
    5.23247 	   2.73946 	   4.21175
    5.25126 	   2.74708 	   4.21172
    5.27022 	   2.75429 	   4.21188
    5.28933 	   2.76108 	   4.21215
    5.30858 	   2.76746 	   4.21244
    5.32796 	   2.77342 	   4.21267
    5.34746 	   2.77899 	   4.21280
    5.36707 	   2.78418 	   4.21282
    5.38676 	   2.78903 	   4.21275
    5.40653 	   2.79357 	   4.21263
    5.42636 	   2.79782 	   4.21250
    5.44625 	   2.80180 	   4.21239
    5.46618 	   2.80552 	   4.21232
    5.48617 	   2.80896 	   4.21230
    5.50621 	   2.81211 	   4.21233
    5.52629 	   2.81496 	   4.21239
    5.19541 	   2.70804 	   4.20127
    5.19541 	   2.69332 	   4.18972
    5.19541 	   2.67888 	   4.17784
    5.19541 	   2.66465 	   4.16569
    5.19541 	   2.65059 	   4.15335
    5.19540 	   2.63667 	   4.14086
    5.19540 	   2.62295 	   4.12814
    5.19540 	   2.60946 	   4.11519
    5.19540 	   2.58336 	   4.08917
    5.19540 	   2.57073 	   4.07614
    5.19540 	   2.55860 	   4.06264
    5.19540 	   2.54768 	   4.04816
    5.19540 	   2.53845 	   4.03255
    5.19540 	   2.53173 	   4.01572
    5.19539 	   2.52753 	   3.97830
    5.19539 	   2.52896 	   3.95869
    5.19539 	   2.53180 	   3.93923
    5.19539 	   2.53468 	   3.91978
    5.19539 	   2.53639 	   3.90021
    5.19539 	   2.53562 	   3.88056
    5.19539 	   2.53260 	   3.86114
    5.19538 	   2.52664 	   3.84243
    5.19538 	   2.51681 	   3.82546
    5.52687 	   2.49998 	   3.81239
    5.50736 	   2.49998 	   3.81230
    5.48785 	   2.49998 	   3.81226
    5.46834 	   2.49998 	   3.81228
    5.44883 	   2.49998 	   3.81236
    5.42933 	   2.49998 	   3.81250
    5.40982 	   2.49998 	   3.81266
    5.39031 	   2.49998 	   3.81281
    5.37080 	   2.49998 	   3.81290
    5.35129 	   2.49998 	   3.81287
    5.33178 	   2.49998 	   3.81273
    5.31227 	   2.49998 	   3.81251
    5.29276 	   2.49998 	   3.81229
    5.27325 	   2.49998 	   3.81223
    5.25375 	   2.49998 	   3.81251
    5.23425 	   2.49998 	   3.81329
    5.21479 	   2.49999 	   3.81465
    5.54641 	   2.80939 	   4.19426
    5.54641 	   2.79961 	   4.17689
    5.54641 	   2.78825 	   4.16051
    5.54641 	   2.77591 	   4.14485
    5.54640 	   2.76287 	   4.12977
    5.54640 	   2.74934 	   4.11513
    5.54640 	   2.73546 	   4.10081
    5.54640 	   2.72132 	   4.08676
    5.54640 	   2.70692 	   4.07297
    5.54640 	   2.69262 	   4.05908
    5.54640 	   2.67877 	   4.04474
    5.54640 	   2.66540 	   4.02994
    5.54640 	   2.65244 	   4.01479
    5.54639 	   2.63995 	   3.99925
    5.54639 	   2.62789 	   3.98337
    5.54639 	   2.61597 	   3.96739
    5.54639 	   2.60405 	   3.95140
    5.54639 	   2.59216 	   3.93540
    5.54639 	   2.58027 	   3.91940
    5.54639 	   2.56865 	   3.90319
    5.54639 	   2.55788 	   3.88642
    5.54639 	   2.54872 	   3.86872
    5.54638 	   2.54153 	   3.85013
    5.54638 	   2.53254 	   3.83241
    5.54638 	   2.51862 	   3.81828
    5.19539 	   2.47246 	   3.97830
    5.19539 	   2.47102 	   3.95870
    5.19539 	   2.46819 	   3.93924
    5.19539 	   2.46530 	   3.91978
    5.19539 	   2.46359 	   3.90021
    5.19539 	   2.46436 	   3.88056
    5.19539 	   2.46738 	   3.86114
    5.19538 	   2.47333 	   3.84243
    5.19538 	   2.48316 	   3.82547
    5.19540 	   2.41664 	   4.08918
    5.19540 	   2.42927 	   4.07615
    5.19540 	   2.44139 	   4.06265
    5.19540 	   2.45232 	   4.04817
    5.19540 	   2.46154 	   4.03255
    5.19540 	   2.46826 	   4.01572
    5.19541 	   2.29197 	   4.20129
    5.19541 	   2.30669 	   4.18974
    5.19541 	   2.32114 	   4.17786
    5.19541 	   2.33536 	   4.16571
    5.19541 	   2.34942 	   4.15337
    5.19540 	   2.36334 	   4.14087
    5.19540 	   2.37705 	   4.12816
    5.19540 	   2.39055 	   4.11520
    5.21385 	   2.26859 	   4.21203
    5.23247 	   2.26056 	   4.21178
    5.25126 	   2.25294 	   4.21175
    5.27022 	   2.24573 	   4.21191
    5.28933 	   2.23893 	   4.21218
    5.30858 	   2.23256 	   4.21247
    5.32796 	   2.22659 	   4.21270
    5.34746 	   2.22103 	   4.21283
    5.36707 	   2.21584 	   4.21285
    5.38676 	   2.21099 	   4.21279
    5.40653 	   2.20645 	   4.21267
    5.42636 	   2.20220 	   4.21253
    5.44625 	   2.19822 	   4.21242
    5.46618 	   2.19450 	   4.21236
    5.48617 	   2.19106 	   4.21234
    5.50621 	   2.18791 	   4.21236
    5.52629 	   2.18506 	   4.21243
    5.54641 	   2.19062 	   4.19429
    5.54641 	   2.20040 	   4.17693
    5.54641 	   2.21176 	   4.16055
    5.54641 	   2.22409 	   4.14488
    5.54640 	   2.23713 	   4.12980
    5.54640 	   2.25066 	   4.11516
    5.54640 	   2.26454 	   4.10084
    5.54640 	   2.27868 	   4.08678
    5.54640 	   2.29308 	   4.07299
    5.54640 	   2.30738 	   4.05910
    5.54640 	   2.32123 	   4.04476
    5.54640 	   2.33460 	   4.02996
    5.54640 	   2.34755 	   4.01481
    5.54639 	   2.36004 	   3.99926
    5.54639 	   2.37210 	   3.98339
    5.54639 	   2.38402 	   3.96740
    5.54639 	   2.39593 	   3.95141
    5.54639 	   2.40783 	   3.93541
    5.54639 	   2.41972 	   3.91941
    5.54639 	   2.43133 	   3.90320
    5.54639 	   2.44210 	   3.88643
    5.54639 	   2.45126 	   3.86873
    5.54638 	   2.45844 	   3.85013
    5.54638 	   2.46743 	   3.83241
    5.54638 	   2.48135 	   3.81829
    5.19541 	   2.30326 	   4.21253
    5.19541 	   2.32949 	   4.21252
    5.19541 	   2.35572 	   4.21252
    5.19541 	   2.38196 	   4.21252
    5.19541 	   2.40819 	   4.21252
    5.19541 	   2.43442 	   4.21252
    5.19541 	   2.46066 	   4.21252
    5.19541 	   2.48689 	   4.21252
    5.19541 	   2.51313 	   4.21251
    5.19541 	   2.53936 	   4.21251
    5.19541 	   2.56559 	   4.21251
    5.19541 	   2.59183 	   4.21251
    5.19541 	   2.61806 	   4.21251
    5.19541 	   2.64429 	   4.21251
    5.19541 	   2.67053 	   4.21250
    5.19541 	   2.69676 	   4.21250
    5.54641 	   2.24602 	   4.21250
    5.54641 	   2.30952 	   4.21250
    5.54641 	   2.37302 	   4.21250
    5.54641 	   2.43651 	   4.21249
    5.54641 	   2.50001 	   4.21249
    5.54641 	   2.56350 	   4.21249
    5.54641 	   2.62700 	   4.21248
    5.54641 	   2.69050 	   4.21248
    5.54641 	   2.75399 	   4.21248
    6.24841 	   2.82667 	   4.18908
    6.24841 	   2.82667 	   4.16573
    6.24841 	   2.82667 	   4.14238
    6.24840 	   2.82667 	   4.11904
    6.24840 	   2.82667 	   4.09569
    6.24840 	   2.82637 	   4.07235
    6.24840 	   2.82465 	   4.04908
    6.24840 	   2.82065 	   4.02609
    6.24840 	   2.81371 	   4.00382
    6.24839 	   2.80342 	   3.98290
    6.24839 	   2.79067 	   3.96335
    6.24839 	   2.77640 	   3.94488
    6.24839 	   2.76108 	   3.92727
    6.24839 	   2.74520 	   3.91015
    6.24839 	   2.72906 	   3.89328
    6.24839 	   2.71270 	   3.87663
    6.24839 	   2.69607 	   3.86024
    6.24838 	   2.67883 	   3.84451
    6.24838 	   2.66010 	   3.83061
    6.24838 	   2.63920 	   3.82029
    6.24838 	   2.61661 	   3.81455
    6.24838 	   2.59337 	   3.81258
    6.24838 	   2.57002 	   3.81244
    6.24838 	   2.54668 	   3.81244
    6.24838 	   2.52333 	   3.81244
    5.58523 	   2.82142 	   4.21263
    5.62415 	   2.82415 	   4.21274
    5.66313 	   2.82582 	   4.21277
    5.70215 	   2.82664 	   4.21271
    5.74116 	   2.82684 	   4.21260
    5.78018 	   2.82668 	   4.21246
    5.81920 	   2.82637 	   4.21232
[...]
CELL_DATA 	      9403
SCALARS 	cell_scalars 	FLOAT 	         1
LOOKUP_TABLE 	DEFAULT
    -0.46423E+02
    -0.49298E+02
    -0.44123E+02
    -0.47821E+02
    -0.48703E+02
    -0.45437E+02
    -0.48803E+02
    -0.50618E+02
    -0.47872E+02
    -0.48026E+02
    -0.50810E+02
    -0.50370E+02
    -0.46200E+02
    -0.44368E+02
    -0.47952E+02
    -0.50250E+02
    -0.51371E+02
    -0.47037E+02
    -0.54705E+02
    -0.57907E+02
    -0.56815E+02
    -0.56490E+02
    -0.57895E+02
    -0.57551E+02
    -0.59925E+02
    -0.60428E+02
    -0.58147E+02
    -0.59523E+02
    -0.61556E+02
    -0.58384E+02
    -0.55924E+02
    -0.56749E+02
    -0.59351E+02
    -0.57918E+02
    -0.56101E+02
    -0.52916E+02
    -0.63643E+02
    -0.63107E+02
    -0.63245E+02
    -0.62817E+02
    -0.62808E+02
    -0.62444E+02
    -0.63295E+02
    -0.63776E+02
    -0.62321E+02
    -0.63119E+02
    -0.65281E+02
    -0.62212E+02
    -0.60207E+02
    -0.62001E+02
    -0.62761E+02
    -0.61087E+02
    -0.60807E+02
    -0.62308E+02
    -0.66279E+02
    -0.66737E+02
    -0.67603E+02
    -0.67887E+02
    -0.69044E+02
    -0.66984E+02
    -0.67182E+02
    -0.68096E+02
    -0.66051E+02
    -0.65933E+02
    -0.68407E+02
    -0.65118E+02
    -0.62418E+02
    -0.63965E+02
    -0.64178E+02
    -0.63462E+02
    -0.64711E+02
    -0.63645E+02
    -0.65786E+02
    -0.67784E+02
    -0.68092E+02
    -0.68516E+02
    -0.69830E+02
    -0.67971E+02
    -0.68727E+02
    -0.68882E+02
    -0.67308E+02
    -0.68308E+02
    -0.69489E+02
    -0.66694E+02
    -0.64992E+02
    -0.67308E+02
    -0.66567E+02
    -0.65610E+02
    -0.66665E+02
    -0.65245E+02
    -0.68480E+02
    -0.69706E+02
    -0.69870E+02
    -0.69911E+02
    -0.70029E+02
    -0.69327E+02
    -0.68844E+02
    -0.68114E+02
    -0.67962E+02
    -0.69298E+02
    -0.69251E+02
    -0.67942E+02
    -0.67823E+02
    -0.68288E+02
    -0.66421E+02
    -0.68269E+02
    -0.70508E+02
    -0.67371E+02
    -0.68535E+02
    -0.69267E+02
    -0.70300E+02
    -0.70384E+02
    -0.71631E+02
    -0.72111E+02
    -0.70218E+02
    -0.69795E+02
    -0.70004E+02
    -0.69873E+02
    -0.68952E+02
    -0.67850E+02
    -0.67704E+02
    -0.68133E+02
    -0.67164E+02
    -0.68018E+02
    -0.69414E+02
    -0.67118E+02
    -0.67920E+02
    -0.69264E+02
    -0.70234E+02
    -0.70310E+02
    -0.70103E+02
    -0.69720E+02
    -0.69082E+02
    -0.70365E+02
    -0.70848E+02
    -0.71493E+02
    -0.70626E+02
    -0.68911E+02
    -0.68684E+02
    -0.69539E+02
    -0.68835E+02
    -0.68691E+02
    -0.68312E+02
    -0.66509E+02
    -0.68978E+02
    -0.70315E+02
    -0.70727E+02
    -0.71364E+02
    -0.70852E+02
    -0.69768E+02
    -0.69322E+02
    -0.70272E+02
    -0.70149E+02
    -0.71905E+02
    -0.72799E+02
    -0.69703E+02
    -0.70550E+02
    -0.72048E+02
    -0.69741E+02
    -0.69364E+02
    -0.69112E+02
    -0.67089E+02
    -0.68689E+02
    -0.69504E+02
    -0.69745E+02
    -0.69828E+02
    -0.70720E+02
    -0.72288E+02
    -0.71031E+02
    -0.71591E+02
    -0.71740E+02
    -0.70804E+02
    -0.70697E+02
    -0.69254E+02
    -0.68611E+02
    -0.69579E+02
    -0.67996E+02
    -0.68457E+02
    -0.69463E+02
    -0.66397E+02
    -0.66749E+02
    -0.68176E+02
    -0.68180E+02
    -0.67750E+02
    -0.67736E+02
    -0.69914E+02
    -0.69869E+02
    -0.70208E+02
    -0.70251E+02
    -0.68282E+02
    -0.68189E+02
    -0.69736E+02
    -0.67854E+02
    -0.66448E+02
    -0.65726E+02
    -0.63580E+02
    -0.63041E+02
    -0.62156E+02
    -0.65374E+02
    -0.67296E+02
    -0.65951E+02
    -0.67412E+02
    -0.66244E+02
    -0.66317E+02
    -0.67121E+02
    -0.66387E+02
    -0.64752E+02
    -0.63156E+02
    -0.62438E+02
    -0.63280E+02
    -0.60761E+02
    -0.61354E+02
    -0.61846E+02
    -0.57908E+02
    -0.56690E+02
    -0.56443E+02
    -0.61829E+02
    -0.61716E+02
    -0.59953E+02
    -0.61324E+02
    -0.59569E+02
    -0.60607E+02
    -0.62129E+02
    -0.58816E+02
    -0.57522E+02
    -0.57652E+02
    -0.56154E+02
    -0.53531E+02
    -0.53024E+02
    -0.53631E+02
    -0.49421E+02
    -0.47536E+02
    -0.46713E+02
    -0.40336E+02
    -0.55802E+02
    -0.56660E+02
    -0.53825E+02
    -0.51184E+02
    -0.52574E+02
    -0.51000E+02
    -0.46888E+02
    -0.47463E+02
    -0.46993E+02
    -0.41210E+02
    -0.38986E+02
    -0.39980E+02
    -0.35294E+02
    -0.27019E+02
    -0.25256E+02
    -0.20718E+02
    -0.61669E+01
     0.52807E+01
    -0.36911E+02
    -0.32634E+02
    -0.38198E+02
    -0.32636E+02
    -0.21772E+02
    -0.24904E+02
    -0.25999E+02
    -0.12266E+02
    -0.58977E+01
    -0.61496E+01
     0.53128E+01
     0.21457E+02
     0.30949E+02
     0.41253E+02
     0.62120E+02
     0.81751E+02
     0.89667E+02
     0.10531E+03
     0.11990E+02
     0.33357E+02
     0.40138E+02
     0.40127E+02
     0.55137E+02
     0.74513E+02
     0.73850E+02
     0.75196E+02
     0.10033E+03
     0.11818E+03
     0.11969E+03
     0.13143E+03
     0.15943E+03
     0.17807E+03
     0.19460E+03
     0.21493E+03
     0.23228E+03
     0.25453E+03
     0.13039E+03
     0.16640E+03
     0.18646E+03
     0.19014E+03
     0.19824E+03
     0.21898E+03
     0.23677E+03
     0.24000E+03
     0.24766E+03
     0.26914E+03
     0.28942E+03
     0.29970E+03
     0.31188E+03
     0.32941E+03
     0.34971E+03
     0.36945E+03
     0.38367E+03
     0.40155E+03
     0.31206E+03
     0.34132E+03
     0.36616E+03
     0.37594E+03
     0.37902E+03
     0.39251E+03
     0.40965E+03
     0.42177E+03
     0.42808E+03
     0.43300E+03
     0.44478E+03
     0.46569E+03
     0.48137E+03
     0.49304E+03
     0.50436E+03
     0.51989E+03
     0.53778E+03
     0.55459E+03
     0.50410E+03
     0.53057E+03
     0.54863E+03
     0.56085E+03
     0.56863E+03
     0.57313E+03
     0.58223E+03
     0.59441E+03
     0.60318E+03
     0.61337E+03
     0.62001E+03
     0.62755E+03
     0.64128E+03
     0.65514E+03
     0.66905E+03
     0.68356E+03
     0.69533E+03
     0.70633E+03
     0.69625E+03
     0.71789E+03
     0.73178E+03
     0.74456E+03
     0.75277E+03
     0.75621E+03
     0.76013E+03
     0.76650E+03
     0.77448E+03
     0.78384E+03
     0.79222E+03
     0.80029E+03
     0.81114E+03
     0.82051E+03
     0.82788E+03
     0.83981E+03
     0.85162E+03
     0.86108E+03
     0.88616E+03
     0.90572E+03
     0.92012E+03
     0.92985E+03
     0.93480E+03
     0.93854E+03
     0.94273E+03
     0.94630E+03
     0.94996E+03
     0.95580E+03
     0.96283E+03
     0.96953E+03
     0.97743E+03
     0.98640E+03
     0.99597E+03
     0.10070E+04
     0.10165E+04
     0.10246E+04
     0.10751E+04
     0.10949E+04
     0.11117E+04
     0.11195E+04
     0.11216E+04
     0.11248E+04
     0.11285E+04
     0.11307E+04
     0.11336E+04
     0.11388E+04
     0.11449E+04
     0.11498E+04
     0.11548E+04
     0.11617E+04
     0.11696E+04
     0.11775E+04
     0.11842E+04
     0.11897E+04
     0.12640E+04
     0.12824E+04
     0.12966E+04
     0.13056E+04
     0.13097E+04
     0.13114E+04
     0.13131E+04
     0.13143E+04
     0.13163E+04
     0.13211E+04
     0.13278E+04
     0.13340E+04
     0.13405E+04
     0.13477E+04
     0.13537E+04
     0.13587E+04
     0.13631E+04
     0.13662E+04
     0.14536E+04
     0.14691E+04
     0.14792E+04
     0.14853E+04
     0.14888E+04
     0.14905E+04
     0.14927E+04
     0.14953E+04
     0.14977E+04
     0.15004E+04
     0.15046E+04
     0.15097E+04
     0.15153E+04
     0.15214E+04
     0.15268E+04
     0.15311E+04
     0.15352E+04
     0.15395E+04
     0.16253E+04
     0.16425E+04
     0.16531E+04
     0.16592E+04
     0.16634E+04
     0.16656E+04
     0.16664E+04
     0.16672E+04
     0.16689E+04
     0.16711E+04
     0.16736E+04
     0.16760E+04
     0.16797E+04
     0.16843E+04
     0.16877E+04
     0.16897E+04
     0.16916E+04
     0.16940E+04
     0.17516E+04
     0.17723E+04
     0.17865E+04
     0.17932E+04
     0.17940E+04
     0.17921E+04
     0.17900E+04
     0.17887E+04
     0.17885E+04
     0.17895E+04
     0.17913E+04
     0.17932E+04
     0.17955E+04
     0.17981E+04
     0.17998E+04
     0.18009E+04
     0.18016E+04
     0.18020E+04
    -0.47137E+02
    -0.51457E+02
    -0.50357E+02
    -0.47956E+02
    -0.44210E+02
    -0.46178E+02
    -0.50382E+02
    -0.50961E+02
    -0.48309E+02
    -0.48066E+02
    -0.50693E+02
    -0.48744E+02
    -0.45631E+02
    -0.49214E+02
    -0.48315E+02
    -0.44212E+02
    -0.49293E+02
    -0.46429E+02
    -0.52909E+02
    -0.56074E+02
    -0.57955E+02
    -0.59327E+02
    -0.56597E+02
    -0.56381E+02
    -0.59155E+02
    -0.62661E+02
    -0.60074E+02
    -0.58193E+02
    -0.60416E+02
    -0.59342E+02
    -0.57083E+02
    -0.60184E+02
    -0.59381E+02
    -0.56886E+02
    -0.57862E+02
    -0.54717E+02
    -0.62138E+02
    -0.60678E+02
    -0.61101E+02
    -0.62653E+02
    -0.62105E+02
    -0.61508E+02
    -0.62521E+02
    -0.63885E+02
    -0.62122E+02
    -0.62103E+02
    -0.63437E+02
    -0.62834E+02
    -0.62298E+02
    -0.64145E+02
    -0.63912E+02
    -0.63311E+02
    -0.63130E+02
    -0.63676E+02
    -0.63831E+02
    -0.64951E+02
    -0.63541E+02
    -0.64333E+02
    -0.64686E+02
    -0.64526E+02
    -0.65830E+02
    -0.66914E+02
    -0.65129E+02
    -0.65708E+02
    -0.67511E+02
    -0.66706E+02
    -0.66674E+02
    -0.69009E+02
    -0.67941E+02
    -0.67616E+02
    -0.66732E+02
    -0.66266E+02
    -0.65710E+02
    -0.67174E+02
    -0.65837E+02
    -0.67038E+02
    -0.68516E+02
    -0.67070E+02
    -0.68836E+02
    -0.70941E+02
    -0.68604E+02
    -0.67253E+02
    -0.68869E+02
    -0.68642E+02
    -0.67907E+02
    -0.69830E+02
    -0.68534E+02
    -0.68100E+02
    -0.67782E+02
    -0.65786E+02
    -0.67978E+02
    -0.71364E+02
    -0.68746E+02
    -0.68306E+02
    -0.69883E+02
    -0.68055E+02
    -0.68307E+02
    -0.69437E+02
    -0.68755E+02
    -0.67518E+02
    -0.68042E+02
    -0.68838E+02
    -0.69333E+02
    -0.70041E+02
    -0.69931E+02
    -0.69893E+02
    -0.69721E+02
    -0.68499E+02
    -0.66956E+02
    -0.69991E+02
    -0.68501E+02
    -0.68038E+02
    -0.68730E+02
    -0.67794E+02
    -0.67881E+02
    -0.68835E+02
    -0.69422E+02
    -0.69643E+02
    -0.69702E+02
    -0.70221E+02
    -0.72137E+02
    -0.71682E+02
    -0.70476E+02
    -0.70312E+02
    -0.69215E+02
    -0.68566E+02
    -0.66452E+02
    -0.68483E+02
    -0.68861E+02
    -0.68929E+02
    -0.69633E+02
    -0.68736E+02
    -0.68921E+02
    -0.70591E+02
    -0.71296E+02
    -0.70723E+02
    -0.70381E+02
    -0.69283E+02
    -0.70125E+02
    -0.70339E+02
    -0.70535E+02
    -0.70248E+02
    -0.69219E+02
    -0.67928E+02
    -0.66986E+02
    -0.69203E+02
    -0.69444E+02
    -0.69783E+02
    -0.72097E+02
    -0.70582E+02
    -0.69705E+02
    -0.72782E+02
    -0.71847E+02
    -0.70116E+02
    -0.70341E+02
    -0.69604E+02
    -0.69621E+02
    -0.70056E+02
    -0.71465E+02
    -0.70754E+02
    -0.70350E+02
    -0.69188E+02
    -0.66334E+02
    -0.69483E+02
    -0.68494E+02
    -0.68043E+02
    -0.69610E+02
    -0.68646E+02
    -0.69240E+02
    -0.70681E+02
    -0.70814E+02
    -0.71736E+02
    -0.71645E+02
    -0.71244E+02
    -0.71351E+02
    -0.69159E+02
    -0.69662E+02
    -0.69681E+02
    -0.69641E+02
    -0.69413E+02
    -0.62269E+02
    -0.63151E+02
    -0.63652E+02
    -0.65792E+02
    -0.66589E+02
    -0.67986E+02
    -0.69694E+02
    -0.68142E+02
    -0.68308E+02
    -0.70258E+02
    -0.70224E+02
    -0.69927E+02
    -0.69687E+02
    -0.67368E+02
    -0.67590E+02
    -0.68177E+02
    -0.68365E+02
    -0.67496E+02
    -0.56532E+02
    -0.56780E+02
    -0.57942E+02
    -0.61976E+02
    -0.61522E+02
    -0.60871E+02
    -0.63353E+02
    -0.62456E+02
    -0.63205E+02
    -0.64818E+02
    -0.66403E+02
    -0.67135E+02
    -0.66310E+02
    -0.66124E+02
    -0.67160E+02
    -0.65885E+02
    -0.67445E+02
    -0.66032E+02
    -0.40542E+02
    -0.46709E+02
    -0.47373E+02
    -0.49385E+02
    -0.53554E+02
    -0.53006E+02
    -0.53567E+02
    -0.56159E+02
    -0.57696E+02
    -0.57571E+02
    -0.58818E+02
    -0.62138E+02
    -0.60620E+02
    -0.59527E+02
    -0.61106E+02
    -0.59685E+02
    -0.61830E+02
    -0.62473E+02
     0.52772E+01
    -0.51597E+01
    -0.19823E+02
    -0.25164E+02
    -0.26960E+02
    -0.35238E+02
    -0.39972E+02
    -0.38987E+02
    -0.41186E+02
    -0.46966E+02
    -0.47469E+02
    -0.46842E+02
    -0.50862E+02
    -0.52412E+02
    -0.51080E+02
    -0.53785E+02
    -0.56850E+02
    -0.56069E+02
     0.10543E+03
     0.90205E+02
     0.82084E+02
     0.62273E+02
     0.41099E+02
     0.30746E+02
     0.21388E+02
     0.52776E+01
    -0.61389E+01
    -0.58274E+01
    -0.12209E+02
    -0.25838E+02
    -0.24733E+02
    -0.21625E+02
    -0.32493E+02
    -0.38160E+02
    -0.32780E+02
    -0.36990E+02
     0.25456E+03
     0.23266E+03
     0.21508E+03
     0.19470E+03
     0.17762E+03
     0.15903E+03
     0.13144E+03
     0.11966E+03
     0.11819E+03
     0.10045E+03
     0.75305E+02
     0.73898E+02
     0.74594E+02
     0.55509E+02
     0.40303E+02
     0.40201E+02
     0.33247E+02
     0.11489E+02
     0.40151E+03
     0.38392E+03
     0.36954E+03
     0.34984E+03
     0.32946E+03
     0.31226E+03
     0.30016E+03
     0.28934E+03
     0.26901E+03
     0.24775E+03
     0.24007E+03
     0.23574E+03
     0.22228E+03
     0.19557E+03
     0.19021E+03
     0.18650E+03
     0.16641E+03
     0.13044E+03
     0.55462E+03
     0.53774E+03
     0.51986E+03
     0.50459E+03
     0.49359E+03
     0.48233E+03
     0.46606E+03
     0.44726E+03
     0.43310E+03
     0.42822E+03
     0.42197E+03
     0.40999E+03
     0.39306E+03
     0.38214E+03
     0.37589E+03
     0.36619E+03
     0.34134E+03
     0.31212E+03
     0.70631E+03
     0.69533E+03
     0.68358E+03
     0.66896E+03
     0.65509E+03
     0.64134E+03
     0.62765E+03
     0.61765E+03
     0.61357E+03
     0.60365E+03
     0.59498E+03
     0.58237E+03
     0.57312E+03
     0.56861E+03
     0.56094E+03
     0.54884E+03
     0.53072E+03
     0.50412E+03
     0.86110E+03
     0.85168E+03
     0.83989E+03
     0.82787E+03
     0.82065E+03
     0.81154E+03
     0.80065E+03
     0.79241E+03
     0.78405E+03
     0.77489E+03
     0.76689E+03
     0.76031E+03
     0.75630E+03
     0.75277E+03
     0.74478E+03
     0.73214E+03
     0.71823E+03
     0.69656E+03
     0.10247E+04
     0.10166E+04
     0.10071E+04
     0.99609E+03
     0.98661E+03
     0.97779E+03
     0.97000E+03
     0.96318E+03
     0.95597E+03
     0.95001E+03
     0.94628E+03
     0.94290E+03
     0.93883E+03
     0.93493E+03
     0.92990E+03
     0.92032E+03
     0.90595E+03
     0.88650E+03
     0.11900E+04
     0.11844E+04
     0.11777E+04
     0.11697E+04
     0.11616E+04
     0.11547E+04
     0.11499E+04
     0.11451E+04
     0.11390E+04
     0.11338E+04
     0.11309E+04
     0.11287E+04
     0.11251E+04
     0.11217E+04
     0.11195E+04
     0.11118E+04
     0.10951E+04
     0.10754E+04
     0.13664E+04
     0.13633E+04
     0.13588E+04
     0.13538E+04
     0.13477E+04
     0.13404E+04
     0.13338E+04
     0.13277E+04
     0.13213E+04
     0.13165E+04
     0.13144E+04
     0.13133E+04
     0.13116E+04
     0.13098E+04
     0.13058E+04
     0.12968E+04
     0.12826E+04
     0.12643E+04
     0.15397E+04
     0.15356E+04
     0.15314E+04
     0.15269E+04
     0.15215E+04
     0.15150E+04
     0.15091E+04
     0.15043E+04
     0.15005E+04
     0.14979E+04
     0.14955E+04
     0.14929E+04
     0.14906E+04
     0.14889E+04
     0.14854E+04
     0.14793E+04
     0.14693E+04
     0.14539E+04
     0.16942E+04
     0.16920E+04
     0.16900E+04
     0.16878E+04
     0.16843E+04
     0.16797E+04
     0.16761E+04
     0.16737E+04
     0.16712E+04
     0.16690E+04
     0.16674E+04
     0.16666E+04
     0.16658E+04
     0.16635E+04
     0.16593E+04
     0.16534E+04
     0.16430E+04
     0.16256E+04
     0.18020E+04
     0.18017E+04
     0.18010E+04
     0.17998E+04
     0.17981E+04
     0.17955E+04
     0.17932E+04
     0.17914E+04
     0.17895E+04
     0.17885E+04
     0.17888E+04
     0.17901E+04
     0.17921E+04
     0.17940E+04
     0.17932E+04
     0.17866E+04
     0.17725E+04
     0.17518E+04
    -0.40770E+02
    -0.20615E+02
    -0.42832E+02
    -0.40521E+02
    -0.20438E+02
    -0.42592E+02
    -0.41617E+02
    -0.34678E+02
    -0.34906E+02
    -0.46541E+02
    -0.33712E+02
    -0.37734E+02
    -0.32659E+02
    -0.46756E+02
    -0.41575E+02
    -0.34550E+02
    -0.34961E+02
    -0.46490E+02
    -0.33340E+02
    -0.37510E+02
    -0.32192E+02
    -0.46524E+02
    -0.40744E+02
    -0.46935E+02
    -0.40095E+02
    -0.46181E+02
    -0.38557E+02
    -0.43548E+02
    -0.39846E+02
    -0.50175E+02
    -0.37556E+02
    -0.43139E+02
    -0.39552E+02
    -0.50072E+02
    -0.30426E+02
    -0.41025E+02
    -0.29013E+02
    -0.39323E+02
    -0.29459E+02
    -0.36197E+02
    -0.30329E+02
    -0.40898E+02
    -0.38038E+02
    -0.47174E+02
    -0.40094E+02
    -0.47462E+02
    -0.37936E+02
    -0.44435E+02
    -0.38862E+02
    -0.45704E+02
    -0.43413E+02
    -0.49981E+02
    -0.30484E+02
    -0.41543E+02
    -0.29881E+02
    -0.39632E+02
    -0.29626E+02
    -0.36345E+02
    -0.30804E+02
    -0.41519E+02
    -0.38570E+02
    -0.47352E+02
    -0.40485E+02
    -0.47877E+02
    -0.38297E+02
    -0.44834E+02
    -0.39617E+02
    -0.46056E+02
    -0.43994E+02
    -0.50164E+02
    -0.19745E+02
    -0.17116E+02
    -0.12197E+02
    -0.12057E+02
    -0.10263E+02
    -0.10181E+02
    -0.91297E+01
    -0.98510E+01
    -0.92515E+01
    -0.94994E+01
    -0.87733E+01
    -0.91342E+01
    -0.87291E+01
    -0.92238E+01
    -0.88372E+01
    -0.90314E+01
    -0.81826E+01
    -0.91700E+01
    -0.88736E+01
    -0.94086E+01
    -0.86118E+01
    -0.93900E+01
    -0.98198E+01
    -0.10372E+02
    -0.97617E+01
    -0.10505E+02
    -0.10458E+02
    -0.12058E+02
    -0.11941E+02
    -0.16887E+02
    -0.46726E+02
    -0.46404E+02
    -0.19625E+02
    -0.15599E+02
    -0.19129E+02
    -0.18075E+02
    -0.15193E+02
    -0.20061E+02
    -0.15401E+02
    -0.24255E+02
    -0.18161E+02
    -0.26522E+02
    -0.21018E+02
    -0.30070E+02
    -0.23037E+02
    -0.19233E+02
    -0.15424E+02
    -0.18199E+02
    -0.15381E+02
    -0.19466E+02
    -0.15302E+02
    -0.23721E+02
    -0.17877E+02
    -0.25627E+02
    -0.20289E+02
    -0.29556E+02
    -0.22507E+02
    -0.12330E+02
    -0.15895E+02
    -0.17983E+02
    -0.13679E+02
    -0.18525E+02
    -0.15174E+02
    -0.19800E+02
    -0.15454E+02
    -0.23316E+02
    -0.17720E+02
    -0.25897E+02
    -0.20860E+02
    -0.26170E+02
    -0.22184E+02
    -0.28451E+02
    -0.22435E+02
    -0.31987E+02
    -0.24423E+02
    -0.12235E+02
    -0.15620E+02
    -0.17561E+02
    -0.13568E+02
    -0.18032E+02
    -0.14705E+02
    -0.19141E+02
    -0.15070E+02
    -0.22615E+02
    -0.17245E+02
    -0.25249E+02
    -0.20199E+02
    -0.25379E+02
    -0.21321E+02
    -0.27758E+02
    -0.21921E+02
    -0.30501E+02
    -0.23147E+02
    -0.11372E+02
    -0.11797E+02
    -0.94186E+01
    -0.99804E+01
    -0.86710E+01
    -0.87657E+01
    -0.89079E+01
    -0.82137E+01
    -0.74426E+01
    -0.76063E+01
    -0.70482E+01
    -0.71716E+01
    -0.64381E+01
    -0.64270E+01
    -0.72429E+01
    -0.66601E+01
    -0.80262E+01
    -0.69652E+01
    -0.81211E+01
    -0.81755E+01
    -0.81999E+01
    -0.78146E+01
    -0.84489E+01
    -0.83072E+01
    -0.95874E+01
    -0.88393E+01
    -0.10870E+02
    -0.10010E+02
    -0.11597E+02
    -0.34168E+02
    -0.26477E+02
    -0.34820E+02
    -0.27651E+02
    -0.10132E+02
    -0.91510E+01
    -0.10465E+02
    -0.94744E+01
    -0.11554E+02
    -0.10530E+02
    -0.11456E+02
    -0.10426E+02
    -0.11958E+02
    -0.10924E+02
    -0.99928E+01
    -0.11344E+02
    -0.12546E+02
    -0.11633E+02
    -0.13863E+02
    -0.12535E+02
    -0.15845E+02
    -0.13827E+02
    -0.19624E+02
    -0.15855E+02
    -0.10650E+02
    -0.11661E+02
    -0.12263E+02
    -0.11170E+02
    -0.14112E+02
    -0.12299E+02
    -0.15300E+02
    -0.14010E+02
    -0.19305E+02
    -0.15525E+02
    -0.12294E+02
    -0.11017E+02
    -0.13328E+02
    -0.11978E+02
    -0.14825E+02
    -0.12933E+02
    -0.15509E+02
    -0.12597E+02
    -0.11274E+02