# vtk DataFile Version 3.14.1
BMesh by KP LIAO
ASCII
DATASET UNSTRUCTURED_GRID
POINTS 	      8150 	FLOAT
    5.19585 	   2.72300 	   4.21988
    5.19551 	   2.59614 	   4.10944
    5.19518 	   2.52823 	   4.00532
    5.19462 	   2.49997 	   3.82401
    5.54561 	   2.49997 	   3.81882
    5.54684 	   2.81749 	   4.21878
    5.19518 	   2.47176 	   4.00533
    5.19551 	   2.40387 	   4.10946
    5.19585 	   2.27703 	   4.21992
    5.54684 	   2.18253 	   4.21885
    6.24884 	   2.82668 	   4.21662
    6.24761 	   2.49997 	   3.81665
    6.24884 	   2.17335 	   4.21668
    7.88560 	   2.49997 	   3.81160
    7.88683 	   2.17335 	   4.21163
    7.88683 	   2.82668 	   4.21156
    9.29083 	   2.82668 	   4.20723
    9.28959 	   2.49997 	   3.80726
    9.29083 	   2.17335 	   4.20729
    9.65250 	   2.49998 	   3.88414
    9.65249 	   2.49331 	   3.88153
    9.58238 	   2.49332 	   3.90281
    9.60035 	   2.49999 	   3.95297
    9.58254 	   2.48825 	   3.95303
    9.55618 	   2.48356 	   3.94641
    9.58215 	   2.49998 	   3.82716
    9.55558 	   2.49997 	   3.81977
    9.52401 	   2.47761 	   3.94092
    9.52361 	   2.49997 	   3.81370
    9.58238 	   2.50665 	   3.90281
    9.65249 	   2.50665 	   3.88153
    9.58254 	   2.51172 	   3.95302
    9.55618 	   2.51642 	   3.94641
    9.52401 	   2.52236 	   3.94091
    9.83349 	   2.82668 	   4.20555
    9.64182 	   2.82668 	   4.20614
    9.83288 	   2.49999 	   4.00825
    9.64110 	   2.49999 	   3.97259
    9.52483 	   2.82668 	   4.20650
    9.64183 	   2.17335 	   4.20621
    9.83349 	   2.17335 	   4.20562
    9.52483 	   2.17335 	   4.20657
    9.42889 	   2.17335 	   4.20687
    9.42889 	   2.82668 	   4.20680
    9.83349 	   2.50001 	   4.20559
    9.65242 	   2.49998 	   3.86014
    9.42766 	   2.49997 	   3.80684
    5.13668 	   2.51694 	   4.00675
    5.13650 	   2.52660 	   3.94701
    5.13615 	   2.49997 	   3.83186
    5.13650 	   2.47337 	   3.94702
    5.13668 	   2.48305 	   4.00675
    5.07802 	   2.47723 	   3.95360
    5.07815 	   2.49082 	   3.99360
    5.07819 	   2.49999 	   4.00693
    5.07815 	   2.50916 	   3.99360
    5.07802 	   2.52275 	   3.95359
    5.06772 	   2.49999 	   3.99363
    5.01952 	   2.52059 	   3.95378
    5.01965 	   2.49999 	   3.99378
    5.01952 	   2.47939 	   3.95378
    5.07769 	   2.49998 	   3.84700
    5.01927 	   2.49998 	   3.87300
    4.94212 	   2.49999 	   3.95402
    5.13734 	   2.69239 	   4.22006
    5.13734 	   2.30764 	   4.22010
    4.93826 	   2.50001 	   4.22070
    5.13701 	   2.57084 	   4.11341
    5.02497 	   2.50000 	   4.11376
    5.13701 	   2.42916 	   4.11342
    5.21428 	   2.73143 	   4.21933
    5.23290 	   2.73946 	   4.21901
    5.25170 	   2.74709 	   4.21893
    5.27065 	   2.75430 	   4.21903
    5.28976 	   2.76109 	   4.21924
    5.30901 	   2.76747 	   4.21947
    5.32840 	   2.77343 	   4.21964
    5.34790 	   2.77899 	   4.21971
    5.36751 	   2.78419 	   4.21968
    5.38720 	   2.78904 	   4.21955
    5.40696 	   2.79358 	   4.21937
    5.42680 	   2.79783 	   4.21918
    5.44668 	   2.80181 	   4.21900
    5.46662 	   2.80552 	   4.21888
    5.48661 	   2.80896 	   4.21880
    5.50664 	   2.81212 	   4.21876
    5.52672 	   2.81497 	   4.21876
    5.19581 	   2.70805 	   4.20864
    5.19578 	   2.69333 	   4.19710
    5.19574 	   2.67888 	   4.18522
    5.19570 	   2.66466 	   4.17307
    5.19566 	   2.65060 	   4.16073
    5.19563 	   2.63667 	   4.14824
    5.19559 	   2.62295 	   4.13552
    5.19555 	   2.60946 	   4.12257
    5.19547 	   2.58336 	   4.09655
    5.19543 	   2.57073 	   4.08353
    5.19538 	   2.55860 	   4.07003
    5.19534 	   2.54768 	   4.05555
    5.19529 	   2.53845 	   4.03994
    5.19524 	   2.53173 	   4.02310
    5.19512 	   2.52752 	   3.98568
    5.19506 	   2.52896 	   3.96608
    5.19500 	   2.53179 	   3.94662
    5.19494 	   2.53468 	   3.92717
    5.19488 	   2.53638 	   3.90759
    5.19482 	   2.53561 	   3.88795
    5.19476 	   2.53259 	   3.86853
    5.19470 	   2.52663 	   3.84982
    5.19465 	   2.51680 	   3.83285
    5.52610 	   2.49997 	   3.81877
    5.50659 	   2.49997 	   3.81875
    5.48708 	   2.49997 	   3.81877
    5.46757 	   2.49997 	   3.81885
    5.44806 	   2.49997 	   3.81899
    5.42855 	   2.49997 	   3.81918
    5.40905 	   2.49997 	   3.81941
    5.38954 	   2.49997 	   3.81961
    5.37003 	   2.49997 	   3.81975
    5.35052 	   2.49997 	   3.81979
    5.33101 	   2.49997 	   3.81971
    5.31150 	   2.49997 	   3.81954
    5.29199 	   2.49997 	   3.81938
    5.27248 	   2.49997 	   3.81938
    5.25298 	   2.49997 	   3.81973
    5.23348 	   2.49997 	   3.82056
    5.21403 	   2.49997 	   3.82198
    5.54679 	   2.80940 	   4.20057
    5.54673 	   2.79962 	   4.18321
    5.54668 	   2.78825 	   4.16683
    5.54664 	   2.77592 	   4.15117
    5.54659 	   2.76287 	   4.13609
    5.54654 	   2.74934 	   4.12144
    5.54650 	   2.73546 	   4.10713
    5.54646 	   2.72132 	   4.09307
    5.54641 	   2.70692 	   4.07929
    5.54637 	   2.69261 	   4.06540
    5.54633 	   2.67876 	   4.05106
    5.54628 	   2.66540 	   4.03626
    5.54623 	   2.65244 	   4.02111
    5.54619 	   2.63995 	   4.00557
    5.54614 	   2.62789 	   3.98969
    5.54609 	   2.61597 	   3.97371
    5.54604 	   2.60405 	   3.95773
    5.54599 	   2.59215 	   3.94172
    5.54594 	   2.58026 	   3.92572
    5.54589 	   2.56865 	   3.90951
    5.54584 	   2.55787 	   3.89275
    5.54578 	   2.54871 	   3.87505
    5.54573 	   2.54152 	   3.85646
    5.54567 	   2.53253 	   3.83873
    5.54563 	   2.51861 	   3.82461
    5.19512 	   2.47246 	   3.98569
    5.19506 	   2.47102 	   3.96608
    5.19500 	   2.46818 	   3.94663
    5.19494 	   2.46529 	   3.92717
    5.19488 	   2.46359 	   3.90760
    5.19482 	   2.46435 	   3.88795
    5.19476 	   2.46737 	   3.86853
    5.19470 	   2.47332 	   3.84982
    5.19465 	   2.48315 	   3.83285
    5.19547 	   2.41664 	   4.09657
    5.19543 	   2.42927 	   4.08354
    5.19538 	   2.44139 	   4.07004
    5.19534 	   2.45232 	   4.05556
    5.19529 	   2.46154 	   4.03994
    5.19524 	   2.46826 	   4.02311
    5.19581 	   2.29198 	   4.20869
    5.19578 	   2.30669 	   4.19714
    5.19574 	   2.32114 	   4.18525
    5.19570 	   2.33536 	   4.17310
    5.19566 	   2.34942 	   4.16076
    5.19563 	   2.36334 	   4.14827
    5.19559 	   2.37706 	   4.13555
    5.19555 	   2.39055 	   4.12259
    5.21428 	   2.26860 	   4.21937
    5.23290 	   2.26057 	   4.21906
    5.25170 	   2.25294 	   4.21898
    5.27065 	   2.24573 	   4.21908
    5.28976 	   2.23894 	   4.21930
    5.30901 	   2.23256 	   4.21953
    5.32840 	   2.22660 	   4.21970
    5.34790 	   2.22103 	   4.21977
    5.36751 	   2.21584 	   4.21974
    5.38720 	   2.21099 	   4.21961
    5.40696 	   2.20645 	   4.21943
    5.42680 	   2.20220 	   4.21924
    5.44668 	   2.19822 	   4.21907
    5.46662 	   2.19451 	   4.21894
    5.48661 	   2.19107 	   4.21886
    5.50664 	   2.18791 	   4.21883
    5.52672 	   2.18506 	   4.21883
    5.54679 	   2.19063 	   4.20063
    5.54673 	   2.20041 	   4.18327
    5.54668 	   2.21176 	   4.16689
    5.54664 	   2.22410 	   4.15122
    5.54659 	   2.23714 	   4.13614
    5.54654 	   2.25067 	   4.12150
    5.54650 	   2.26454 	   4.10718
    5.54646 	   2.27868 	   4.09312
    5.54641 	   2.29308 	   4.07933
    5.54637 	   2.30738 	   4.06544
    5.54633 	   2.32123 	   4.05109
    5.54628 	   2.33459 	   4.03630
    5.54623 	   2.34755 	   4.02114
    5.54619 	   2.36003 	   4.00560
    5.54614 	   2.37209 	   3.98972
    5.54609 	   2.38401 	   3.97373
    5.54604 	   2.39593 	   3.95775
    5.54599 	   2.40782 	   3.94174
    5.54594 	   2.41971 	   3.92574
    5.54589 	   2.43132 	   3.90953
    5.54584 	   2.44209 	   3.89276
    5.54578 	   2.45125 	   3.87506
    5.54573 	   2.45843 	   3.85646
    5.54567 	   2.46742 	   3.83874
    5.54563 	   2.48134 	   3.82462
    5.19585 	   2.30326 	   4.21992
    5.19585 	   2.32950 	   4.21992
    5.19585 	   2.35573 	   4.21992
    5.19585 	   2.38196 	   4.21991
    5.19585 	   2.40820 	   4.21991
    5.19585 	   2.43443 	   4.21991
    5.19585 	   2.46066 	   4.21991
    5.19585 	   2.48690 	   4.21990
    5.19585 	   2.51313 	   4.21990
    5.19585 	   2.53937 	   4.21990
    5.19585 	   2.56560 	   4.21989
    5.19585 	   2.59183 	   4.21989
    5.19585 	   2.61807 	   4.21989
    5.19585 	   2.64430 	   4.21989
    5.19585 	   2.67053 	   4.21988
    5.19585 	   2.69677 	   4.21988
    5.54684 	   2.24603 	   4.21884
    5.54684 	   2.30953 	   4.21884
    5.54684 	   2.37302 	   4.21883
    5.54684 	   2.43652 	   4.21882
    5.54684 	   2.50001 	   4.21882
    5.54684 	   2.56351 	   4.21881
    5.54684 	   2.62701 	   4.21880
    5.54684 	   2.69050 	   4.21880
    5.54684 	   2.75400 	   4.21879
    6.24877 	   2.82668 	   4.19327
    6.24870 	   2.82668 	   4.16993
    6.24862 	   2.82667 	   4.14658
    6.24855 	   2.82667 	   4.12324
    6.24848 	   2.82667 	   4.09989
    6.24841 	   2.82637 	   4.07655
    6.24834 	   2.82465 	   4.05327
    6.24827 	   2.82064 	   4.03029
    6.24820 	   2.81371 	   4.00802
    6.24813 	   2.80341 	   3.98709
    6.24807 	   2.79066 	   3.96755
    6.24802 	   2.77639 	   3.94908
    6.24796 	   2.76107 	   3.93147
    6.24791 	   2.74519 	   3.91435
    6.24786 	   2.72905 	   3.89749
    6.24780 	   2.71269 	   3.88083
    6.24775 	   2.69606 	   3.86445
    6.24771 	   2.67882 	   3.84871
    6.24766 	   2.66009 	   3.83481
    6.24763 	   2.63919 	   3.82450
    6.24761 	   2.61660 	   3.81876
    6.24761 	   2.59335 	   3.81679
    6.24761 	   2.57001 	   3.81665
    6.24761 	   2.54666 	   3.81665
    6.24761 	   2.52332 	   3.81665
    5.58566 	   2.82143 	   4.21883
    5.62459 	   2.82416 	   4.21882
    5.66357 	   2.82583 	   4.21873
    5.70258 	   2.82665 	   4.21855
    5.74160 	   2.82685 	   4.21832
    5.78062 	   2.82668 	   4.21806
    5.81963 	   2.82637 	   4.21781
[...]
CELL_DATA 	      9403
SCALARS 	cell_scalars 	FLOAT 	         1
LOOKUP_TABLE 	DEFAULT
    -0.70547E+02
    -0.69127E+02
    -0.68242E+02
    -0.64596E+02
    -0.65100E+02
    -0.65196E+02
    -0.63894E+02
    -0.64750E+02
    -0.66287E+02
    -0.62544E+02
    -0.58985E+02
    -0.60606E+02
    -0.63805E+02
    -0.60141E+02
    -0.56612E+02
    -0.55112E+02
    -0.58615E+02
    -0.58419E+02
    -0.68378E+02
    -0.66600E+02
    -0.66744E+02
    -0.64412E+02
    -0.63341E+02
    -0.64472E+02
    -0.63714E+02
    -0.64553E+02
    -0.66346E+02
    -0.63335E+02
    -0.61177E+02
    -0.63649E+02
    -0.63749E+02
    -0.61353E+02
    -0.60289E+02
    -0.62520E+02
    -0.61869E+02
    -0.57895E+02
    -0.73991E+02
    -0.73451E+02
    -0.74272E+02
    -0.72209E+02
    -0.71058E+02
    -0.71875E+02
    -0.70360E+02
    -0.71588E+02
    -0.73730E+02
    -0.69998E+02
    -0.68427E+02
    -0.70127E+02
    -0.67359E+02
    -0.65913E+02
    -0.67487E+02
    -0.66310E+02
    -0.63662E+02
    -0.63026E+02
    -0.72231E+02
    -0.73172E+02
    -0.74446E+02
    -0.72960E+02
    -0.73401E+02
    -0.74284E+02
    -0.72044E+02
    -0.73022E+02
    -0.73539E+02
    -0.71308E+02
    -0.74136E+02
    -0.76288E+02
    -0.70756E+02
    -0.69477E+02
    -0.73367E+02
    -0.69859E+02
    -0.66737E+02
    -0.66634E+02
    -0.74788E+02
    -0.74628E+02
    -0.74741E+02
    -0.74411E+02
    -0.74318E+02
    -0.74895E+02
    -0.73936E+02
    -0.74256E+02
    -0.73278E+02
    -0.71037E+02
    -0.72436E+02
    -0.74380E+02
    -0.70943E+02
    -0.71417E+02
    -0.73926E+02
    -0.70577E+02
    -0.69138E+02
    -0.71140E+02
    -0.75382E+02
    -0.74645E+02
    -0.74977E+02
    -0.75984E+02
    -0.75876E+02
    -0.77904E+02
    -0.76085E+02
    -0.75215E+02
    -0.75081E+02
    -0.73206E+02
    -0.73830E+02
    -0.74157E+02
    -0.72258E+02
    -0.73603E+02
    -0.74042E+02
    -0.71481E+02
    -0.72433E+02
    -0.74158E+02
    -0.75310E+02
    -0.73818E+02
    -0.74685E+02
    -0.75615E+02
    -0.76480E+02
    -0.79123E+02
    -0.76382E+02
    -0.74993E+02
    -0.76110E+02
    -0.74589E+02
    -0.76697E+02
    -0.76533E+02
    -0.73875E+02
    -0.74531E+02
    -0.74402E+02
    -0.72123E+02
    -0.72855E+02
    -0.73768E+02
    -0.75665E+02
    -0.75353E+02
    -0.75400E+02
    -0.76472E+02
    -0.76414E+02
    -0.76615E+02
    -0.75793E+02
    -0.75788E+02
    -0.76556E+02
    -0.75131E+02
    -0.77009E+02
    -0.77106E+02
    -0.75329E+02
    -0.77055E+02
    -0.75719E+02
    -0.73188E+02
    -0.73515E+02
    -0.74155E+02
    -0.75141E+02
    -0.74831E+02
    -0.75247E+02
    -0.77762E+02
    -0.76962E+02
    -0.76702E+02
    -0.76879E+02
    -0.77301E+02
    -0.78340E+02
    -0.76361E+02
    -0.77157E+02
    -0.77156E+02
    -0.75196E+02
    -0.77182E+02
    -0.75355E+02
    -0.72706E+02
    -0.75058E+02
    -0.75334E+02
    -0.76116E+02
    -0.74482E+02
    -0.75890E+02
    -0.76955E+02
    -0.75378E+02
    -0.78681E+02
    -0.79253E+02
    -0.78284E+02
    -0.79952E+02
    -0.77901E+02
    -0.78053E+02
    -0.79189E+02
    -0.75510E+02
    -0.74300E+02
    -0.72097E+02
    -0.70903E+02
    -0.71357E+02
    -0.70787E+02
    -0.75411E+02
    -0.76037E+02
    -0.78340E+02
    -0.76310E+02
    -0.75326E+02
    -0.77422E+02
    -0.75241E+02
    -0.76450E+02
    -0.77557E+02
    -0.72953E+02
    -0.73043E+02
    -0.73969E+02
    -0.72257E+02
    -0.70488E+02
    -0.67696E+02
    -0.67682E+02
    -0.66229E+02
    -0.61621E+02
    -0.71979E+02
    -0.71314E+02
    -0.75319E+02
    -0.71821E+02
    -0.71127E+02
    -0.71969E+02
    -0.67148E+02
    -0.71919E+02
    -0.71671E+02
    -0.62622E+02
    -0.67520E+02
    -0.66850E+02
    -0.56186E+02
    -0.58898E+02
    -0.55877E+02
    -0.49712E+02
    -0.46078E+02
    -0.37358E+02
    -0.62762E+02
    -0.55263E+02
    -0.67149E+02
    -0.59708E+02
    -0.53049E+02
    -0.59449E+02
    -0.54682E+02
    -0.51029E+02
    -0.49206E+02
    -0.41661E+02
    -0.38894E+02
    -0.27404E+02
    -0.20990E+02
    -0.21899E+02
    -0.35516E+01
    -0.31161E+01
     0.57275E+01
     0.25852E+02
    -0.33279E+02
    -0.19689E+02
    -0.18292E+02
    -0.48229E+01
    -0.71689E+01
    -0.58054E+01
     0.54804E+01
     0.10720E+02
     0.18541E+02
     0.26124E+02
     0.33181E+02
     0.48959E+02
     0.57980E+02
     0.70038E+02
     0.87112E+02
     0.91107E+02
     0.11486E+03
     0.12911E+03
     0.46963E+02
     0.70818E+02
     0.71858E+02
     0.87612E+02
     0.96999E+02
     0.93488E+02
     0.10529E+03
     0.12761E+03
     0.13045E+03
     0.13514E+03
     0.15948E+03
     0.16978E+03
     0.17377E+03
     0.19554E+03
     0.21031E+03
     0.22066E+03
     0.24006E+03
     0.24715E+03
     0.17188E+03
     0.20957E+03
     0.21654E+03
     0.20761E+03
     0.22333E+03
     0.24163E+03
     0.24801E+03
     0.25773E+03
     0.26945E+03
     0.28796E+03
     0.30622E+03
     0.30913E+03
     0.32645E+03
     0.34302E+03
     0.34390E+03
     0.36402E+03
     0.37586E+03
     0.39016E+03
     0.32836E+03
     0.37203E+03
     0.39517E+03
     0.36085E+03
     0.35759E+03
     0.39294E+03
     0.41271E+03
     0.41441E+03
     0.41998E+03
     0.44193E+03
     0.46138E+03
     0.46018E+03
     0.46574E+03
     0.48488E+03
     0.49308E+03
     0.51741E+03
     0.51631E+03
     0.53202E+03
     0.51228E+03
     0.54606E+03
     0.57330E+03
     0.53927E+03
     0.52294E+03
     0.55360E+03
     0.57387E+03
     0.57966E+03
     0.58734E+03
     0.60114E+03
     0.61206E+03
     0.61703E+03
     0.62442E+03
     0.63334E+03
     0.63670E+03
     0.66600E+03
     0.66453E+03
     0.67555E+03
     0.69375E+03
     0.72783E+03
     0.75407E+03
     0.71288E+03
     0.68662E+03
     0.71513E+03
     0.73629E+03
     0.74132E+03
     0.74596E+03
     0.76148E+03
     0.76983E+03
     0.77345E+03
     0.79128E+03
     0.78986E+03
     0.79144E+03
     0.81366E+03
     0.81313E+03
     0.81771E+03
     0.87058E+03
     0.90329E+03
     0.92715E+03
     0.87378E+03
     0.85192E+03
     0.88870E+03
     0.90636E+03
     0.90706E+03
     0.90800E+03
     0.91524E+03
     0.92024E+03
     0.92957E+03
     0.95061E+03
     0.94438E+03
     0.94302E+03
     0.96943E+03
     0.97205E+03
     0.96838E+03
     0.10418E+04
     0.10687E+04
     0.10794E+04
     0.10397E+04
     0.10390E+04
     0.10709E+04
     0.10810E+04
     0.10804E+04
     0.10791E+04
     0.10800E+04
     0.10815E+04
     0.10862E+04
     0.10977E+04
     0.10997E+04
     0.11022E+04
     0.11232E+04
     0.11287E+04
     0.11272E+04
     0.12086E+04
     0.12252E+04
     0.12229E+04
     0.12095E+04
     0.12266E+04
     0.12506E+04
     0.12534E+04
     0.12517E+04
     0.12542E+04
     0.12581E+04
     0.12625E+04
     0.12676E+04
     0.12731E+04
     0.12733E+04
     0.12706E+04
     0.12749E+04
     0.12828E+04
     0.12893E+04
     0.13775E+04
     0.13896E+04
     0.13901E+04
     0.13855E+04
     0.13945E+04
     0.14080E+04
     0.14097E+04
     0.14099E+04
     0.14167E+04
     0.14252E+04
     0.14342E+04
     0.14424E+04
     0.14490E+04
     0.14536E+04
     0.14542E+04
     0.14556E+04
     0.14580E+04
     0.14600E+04
     0.15520E+04
     0.15633E+04
     0.15672E+04
     0.15683E+04
     0.15725E+04
     0.15772E+04
     0.15783E+04
     0.15795E+04
     0.15833E+04
     0.15879E+04
     0.15921E+04
     0.15965E+04
     0.16025E+04
     0.16091E+04
     0.16135E+04
     0.16150E+04
     0.16166E+04
     0.16187E+04
     0.17032E+04
     0.17104E+04
     0.17184E+04
     0.17267E+04
     0.17316E+04
     0.17340E+04
     0.17353E+04
     0.17369E+04
     0.17396E+04
     0.17435E+04
     0.17481E+04
     0.17532E+04
     0.17594E+04
     0.17648E+04
     0.17675E+04
     0.17684E+04
     0.17692E+04
     0.17689E+04
     0.18029E+04
     0.18166E+04
     0.18292E+04
     0.18387E+04
     0.18421E+04
     0.18425E+04
     0.18426E+04
     0.18430E+04
     0.18442E+04
     0.18468E+04
     0.18500E+04
     0.18530E+04
     0.18562E+04
     0.18587E+04
     0.18594E+04
     0.18589E+04
     0.18577E+04
     0.18563E+04
    -0.58672E+02
    -0.59449E+02
    -0.55414E+02
    -0.56660E+02
    -0.60296E+02
    -0.63940E+02
    -0.61471E+02
    -0.59942E+02
    -0.63068E+02
    -0.69069E+02
    -0.66766E+02
    -0.64151E+02
    -0.65894E+02
    -0.65715E+02
    -0.64961E+02
    -0.68379E+02
    -0.69073E+02
    -0.70509E+02
    -0.57949E+02
    -0.61978E+02
    -0.62511E+02
    -0.60448E+02
    -0.61556E+02
    -0.63474E+02
    -0.63614E+02
    -0.62286E+02
    -0.64158E+02
    -0.67754E+02
    -0.65435E+02
    -0.64305E+02
    -0.65077E+02
    -0.63840E+02
    -0.65077E+02
    -0.66761E+02
    -0.66531E+02
    -0.68399E+02
    -0.62347E+02
    -0.63637E+02
    -0.66315E+02
    -0.67165E+02
    -0.65434E+02
    -0.66520E+02
    -0.68991E+02
    -0.67644E+02
    -0.69673E+02
    -0.73759E+02
    -0.71728E+02
    -0.70912E+02
    -0.72131E+02
    -0.71181E+02
    -0.72480E+02
    -0.74048E+02
    -0.73312E+02
    -0.74207E+02
    -0.66778E+02
    -0.67164E+02
    -0.69864E+02
    -0.72812E+02
    -0.69072E+02
    -0.69499E+02
    -0.72631E+02
    -0.70375E+02
    -0.69888E+02
    -0.72934E+02
    -0.72926E+02
    -0.72172E+02
    -0.74029E+02
    -0.73123E+02
    -0.72947E+02
    -0.74286E+02
    -0.73036E+02
    -0.72885E+02
    -0.72075E+02
    -0.69737E+02
    -0.70573E+02
    -0.74164E+02
    -0.72937E+02
    -0.71481E+02
    -0.73732E+02
    -0.72450E+02
    -0.71191E+02
    -0.73134E+02
    -0.74252E+02
    -0.73868E+02
    -0.74734E+02
    -0.74209E+02
    -0.74351E+02
    -0.74571E+02
    -0.74515E+02
    -0.74762E+02
    -0.75200E+02
    -0.72825E+02
    -0.71402E+02
    -0.74050E+02
    -0.73916E+02
    -0.72501E+02
    -0.74096E+02
    -0.74060E+02
    -0.73389E+02
    -0.75206E+02
    -0.75369E+02
    -0.76088E+02
    -0.77835E+02
    -0.75831E+02
    -0.75809E+02
    -0.74709E+02
    -0.74583E+02
    -0.75501E+02
    -0.74570E+02
    -0.74758E+02
    -0.72985E+02
    -0.74368E+02
    -0.74498E+02
    -0.73840E+02
    -0.76243E+02
    -0.76459E+02
    -0.74488E+02
    -0.76049E+02
    -0.75094E+02
    -0.76461E+02
    -0.79004E+02
    -0.76390E+02
    -0.75612E+02
    -0.74537E+02
    -0.73775E+02
    -0.75366E+02
    -0.74620E+02
    -0.74588E+02
    -0.73549E+02
    -0.75594E+02
    -0.76920E+02
    -0.75260E+02
    -0.76980E+02
    -0.76800E+02
    -0.75031E+02
    -0.76547E+02
    -0.75800E+02
    -0.75619E+02
    -0.76176E+02
    -0.76405E+02
    -0.76689E+02
    -0.75352E+02
    -0.75290E+02
    -0.75521E+02
    -0.75170E+02
    -0.74628E+02
    -0.72366E+02
    -0.74702E+02
    -0.76626E+02
    -0.75077E+02
    -0.77317E+02
    -0.77297E+02
    -0.76373E+02
    -0.78342E+02
    -0.77207E+02
    -0.76222E+02
    -0.76127E+02
    -0.77952E+02
    -0.78365E+02
    -0.75206E+02
    -0.74763E+02
    -0.74718E+02
    -0.70774E+02
    -0.70962E+02
    -0.70566E+02
    -0.71686E+02
    -0.73983E+02
    -0.75392E+02
    -0.79446E+02
    -0.78277E+02
    -0.77908E+02
    -0.79888E+02
    -0.78194E+02
    -0.78296E+02
    -0.77230E+02
    -0.75239E+02
    -0.77027E+02
    -0.75751E+02
    -0.74360E+02
    -0.75313E+02
    -0.61486E+02
    -0.65962E+02
    -0.67582E+02
    -0.67622E+02
    -0.70280E+02
    -0.71909E+02
    -0.73735E+02
    -0.72996E+02
    -0.72895E+02
    -0.77452E+02
    -0.76385E+02
    -0.74849E+02
    -0.76774E+02
    -0.75059E+02
    -0.76238E+02
    -0.78165E+02
    -0.75901E+02
    -0.74805E+02
    -0.37067E+02
    -0.45692E+02
    -0.49479E+02
    -0.55769E+02
    -0.58782E+02
    -0.56030E+02
    -0.66676E+02
    -0.67412E+02
    -0.62540E+02
    -0.71537E+02
    -0.71818E+02
    -0.67284E+02
    -0.72191E+02
    -0.71324E+02
    -0.71785E+02
    -0.75049E+02
    -0.70869E+02
    -0.71466E+02
     0.25936E+02
     0.65186E+01
    -0.24184E+01
    -0.35310E+01
    -0.22339E+02
    -0.21328E+02
    -0.27536E+02
    -0.38772E+02
    -0.41583E+02
    -0.49152E+02
    -0.50564E+02
    -0.54438E+02
    -0.59742E+02
    -0.53219E+02
    -0.59627E+02
    -0.66704E+02
    -0.54960E+02
    -0.63207E+02
     0.12820E+03
     0.11473E+03
     0.91037E+02
     0.86713E+02
     0.69420E+02
     0.57485E+02
     0.48696E+02
     0.33311E+02
     0.26096E+02
     0.18507E+02
     0.11744E+02
     0.57951E+01
    -0.66697E+01
    -0.76852E+01
    -0.50782E+01
    -0.18170E+02
    -0.19727E+02
    -0.33838E+02
     0.24654E+03
     0.23978E+03
     0.22041E+03
     0.20996E+03
     0.19507E+03
     0.17338E+03
     0.16931E+03
     0.15885E+03
     0.13471E+03
     0.13022E+03
     0.12790E+03
     0.10521E+03
     0.92458E+02
     0.96008E+02
     0.86852E+02
     0.71402E+02
     0.70432E+02
     0.46266E+02
     0.38947E+03
     0.37407E+03
     0.36301E+03
     0.34329E+03
     0.34194E+03
     0.32542E+03
     0.30763E+03
     0.30494E+03
     0.28729E+03
     0.26878E+03
     0.25703E+03
     0.24726E+03
     0.24017E+03
     0.22176E+03
     0.20622E+03
     0.21557E+03
     0.20863E+03
     0.16975E+03
     0.53112E+03
     0.51396E+03
     0.51587E+03
     0.49277E+03
     0.48507E+03
     0.46551E+03
     0.45884E+03
     0.46006E+03
     0.44139E+03
     0.41944E+03
     0.41337E+03
     0.41023E+03
     0.39399E+03
     0.35275E+03
     0.35887E+03
     0.39412E+03
     0.37083E+03
     0.32609E+03
     0.67425E+03
     0.66404E+03
     0.66553E+03
     0.63634E+03
     0.63308E+03
     0.62505E+03
     0.61655E+03
     0.61300E+03
     0.59998E+03
     0.58684E+03
     0.57919E+03
     0.57314E+03
     0.55307E+03
     0.52396E+03
     0.53674E+03
     0.57186E+03
     0.54465E+03
     0.51057E+03
     0.81653E+03
     0.81234E+03
     0.81324E+03
     0.79105E+03
     0.78863E+03
     0.79119E+03
     0.77344E+03
     0.76650E+03
     0.75977E+03
     0.74483E+03
     0.74068E+03
     0.73483E+03
     0.71374E+03
     0.68519E+03
     0.71031E+03
     0.75241E+03
     0.72641E+03
     0.69216E+03
     0.96717E+03
     0.97086E+03
     0.96901E+03
     0.94275E+03
     0.94281E+03
     0.95038E+03
     0.92952E+03
     0.91934E+03
     0.91417E+03
     0.90694E+03
     0.90617E+03
     0.90504E+03
     0.88784E+03
     0.85116E+03
     0.87181E+03
     0.92545E+03
     0.90198E+03
     0.86929E+03
     0.11260E+04
     0.11278E+04
     0.11230E+04
     0.11020E+04
     0.10988E+04
     0.10972E+04
     0.10857E+04
     0.10804E+04
     0.10787E+04
     0.10778E+04
     0.10791E+04
     0.10794E+04
     0.10700E+04
     0.10387E+04
     0.10383E+04
     0.10773E+04
     0.10673E+04
     0.10405E+04
     0.12880E+04
     0.12820E+04
     0.12743E+04
     0.12695E+04
     0.12715E+04
     0.12711E+04
     0.12660E+04
     0.12611E+04
     0.12570E+04
     0.12535E+04
     0.12507E+04
     0.12513E+04
     0.12499E+04
     0.12278E+04
     0.12089E+04
     0.12216E+04
     0.12239E+04
     0.12073E+04
     0.14593E+04
     0.14573E+04
     0.14545E+04
     0.14529E+04
     0.14520E+04
     0.14473E+04
     0.14410E+04
     0.14331E+04
     0.14248E+04
     0.14167E+04
     0.14094E+04
     0.14083E+04
     0.14071E+04
     0.13943E+04
     0.13843E+04
     0.13887E+04
     0.13882E+04
     0.13760E+04
     0.16182E+04
     0.16161E+04
     0.16141E+04
     0.16127E+04
     0.16085E+04
     0.16018E+04
     0.15957E+04
     0.15913E+04
     0.15872E+04
     0.15828E+04
     0.15787E+04
     0.15771E+04
     0.15759E+04
     0.15712E+04
     0.15668E+04
     0.15657E+04
     0.15615E+04
     0.15498E+04
     0.17683E+04
     0.17683E+04
     0.17674E+04
     0.17665E+04
     0.17639E+04
     0.17587E+04
     0.17526E+04
     0.17477E+04
     0.17433E+04
     0.17393E+04
     0.17363E+04
     0.17346E+04
     0.17332E+04
     0.17306E+04
     0.17258E+04
     0.17181E+04
     0.17096E+04
     0.17009E+04
     0.18561E+04
     0.18573E+04
     0.18585E+04
     0.18590E+04
     0.18583E+04
     0.18559E+04
     0.18527E+04
     0.18499E+04
     0.18466E+04
     0.18440E+04
     0.18428E+04
     0.18424E+04
     0.18423E+04
     0.18419E+04
     0.18385E+04
     0.18292E+04
     0.18165E+04
     0.18021E+04
    -0.56910E+02
    -0.45289E+02
    -0.56918E+02
    -0.56648E+02
    -0.45051E+02
    -0.56356E+02
    -0.66690E+02
    -0.65715E+02
    -0.64056E+02
    -0.65551E+02
    -0.64890E+02
    -0.65119E+02
    -0.62900E+02
    -0.62905E+02
    -0.66727E+02
    -0.65721E+02
    -0.64019E+02
    -0.65584E+02
    -0.64764E+02
    -0.65000E+02
    -0.62493E+02
    -0.62643E+02
    -0.62078E+02
    -0.63995E+02
    -0.61629E+02
    -0.63571E+02
    -0.64133E+02
    -0.63406E+02
    -0.63306E+02
    -0.62803E+02
    -0.63509E+02
    -0.63099E+02
    -0.62967E+02
    -0.62804E+02
    -0.50925E+02
    -0.54514E+02
    -0.51549E+02
    -0.56523E+02
    -0.55619E+02
    -0.59529E+02
    -0.58969E+02
    -0.61840E+02
    -0.58992E+02
    -0.59824E+02
    -0.56546E+02
    -0.59308E+02
    -0.58582E+02
    -0.61536E+02
    -0.63639E+02
    -0.63669E+02
    -0.63238E+02
    -0.63312E+02
    -0.51307E+02
    -0.54815E+02
    -0.51873E+02
    -0.56717E+02
    -0.56089E+02
    -0.59746E+02
    -0.59355E+02
    -0.62084E+02
    -0.59351E+02
    -0.60447E+02
    -0.57246E+02
    -0.60009E+02
    -0.59223E+02
    -0.61863E+02
    -0.64445E+02
    -0.65280E+02
    -0.65820E+02
    -0.64581E+02
    -0.56356E+02
    -0.51511E+02
    -0.45006E+02
    -0.43818E+02
    -0.40810E+02
    -0.40381E+02
    -0.38406E+02
    -0.38615E+02
    -0.37253E+02
    -0.37414E+02
    -0.36156E+02
    -0.36400E+02
    -0.35229E+02
    -0.35770E+02
    -0.34878E+02
    -0.35586E+02
    -0.34568E+02
    -0.35577E+02
    -0.35018E+02
    -0.36291E+02
    -0.35659E+02
    -0.37165E+02
    -0.37183E+02
    -0.38699E+02
    -0.38508E+02
    -0.40339E+02
    -0.40739E+02
    -0.43608E+02
    -0.44731E+02
    -0.51302E+02
    -0.62039E+02
    -0.61712E+02
    -0.56233E+02
    -0.51736E+02
    -0.55960E+02
    -0.55628E+02
    -0.50916E+02
    -0.55764E+02
    -0.51107E+02
    -0.55977E+02
    -0.52098E+02
    -0.60058E+02
    -0.54046E+02
    -0.61516E+02
    -0.58750E+02
    -0.55717E+02
    -0.51418E+02
    -0.55539E+02
    -0.50705E+02
    -0.55187E+02
    -0.50888E+02
    -0.55517E+02
    -0.51672E+02
    -0.59206E+02
    -0.53387E+02
    -0.60780E+02
    -0.57735E+02
    -0.38774E+02
    -0.42751E+02
    -0.45439E+02
    -0.40871E+02
    -0.47739E+02
    -0.43340E+02
    -0.49665E+02
    -0.44961E+02
    -0.50836E+02
    -0.46929E+02
    -0.52433E+02
    -0.48796E+02
    -0.54420E+02
    -0.50429E+02
    -0.58186E+02
    -0.52555E+02
    -0.59066E+02
    -0.54432E+02
    -0.38543E+02
    -0.42394E+02
    -0.44815E+02
    -0.40342E+02
    -0.46886E+02
    -0.42505E+02
    -0.48912E+02
    -0.44243E+02
    -0.50354E+02
    -0.46365E+02
    -0.51967E+02
    -0.48461E+02
    -0.53424E+02
    -0.49593E+02
    -0.57060E+02
    -0.51422E+02
    -0.57476E+02
    -0.53284E+02
    -0.42400E+02
    -0.44281E+02
    -0.38838E+02
    -0.39504E+02
    -0.36944E+02
    -0.37209E+02
    -0.35454E+02
    -0.35598E+02
    -0.34010E+02
    -0.34075E+02
    -0.33944E+02
    -0.33718E+02
    -0.33514E+02
    -0.33398E+02
    -0.33679E+02
    -0.33241E+02
    -0.33955E+02
    -0.33157E+02
    -0.34757E+02
    -0.33988E+02
    -0.35715E+02
    -0.34630E+02
    -0.36953E+02
    -0.35766E+02
    -0.39095E+02
    -0.37287E+02
    -0.42828E+02
    -0.39955E+02
    -0.44775E+02
    -0.58830E+02
    -0.55487E+02
    -0.59484E+02
    -0.56326E+02
    -0.35401E+02
    -0.33457E+02
    -0.35723E+02
    -0.33869E+02
    -0.44442E+02
    -0.42298E+02
    -0.38025E+02
    -0.35881E+02
    -0.39148E+02
    -0.37251E+02
    -0.35308E+02
    -0.38179E+02
    -0.44628E+02
    -0.42576E+02
    -0.46024E+02
    -0.43503E+02
    -0.48262E+02
    -0.45110E+02
    -0.51855E+02
    -0.47365E+02
    -0.42200E+02
    -0.44204E+02
    -0.44513E+02
    -0.42353E+02
    -0.45794E+02
    -0.43237E+02
    -0.47527E+02
    -0.44724E+02
    -0.50939E+02
    -0.46680E+02
    -0.39920E+02
    -0.37511E+02
    -0.41590E+02
    -0.39418E+02
    -0.43634E+02
    -0.41216E+02
    -0.44325E+02
    -0.40715E+02
    -0.38481E+02