# vtk DataFile Version 3.14.1
BMesh by KP LIAO
ASCII
DATASET UNSTRUCTURED_GRID
POINTS 	      8150 	FLOAT
    5.19610 	   2.72267 	   4.23211
    5.19557 	   2.59607 	   4.12138
    5.19508 	   2.52840 	   4.01711
    5.19421 	   2.50056 	   3.83573
    5.54519 	   2.50057 	   3.82995
    5.54710 	   2.81717 	   4.23065
    5.19508 	   2.47193 	   4.01698
    5.19557 	   2.40380 	   4.12095
    5.19610 	   2.27670 	   4.23112
    5.54709 	   2.18221 	   4.22924
    6.24909 	   2.82635 	   4.22732
    6.24718 	   2.50057 	   3.82661
    6.24908 	   2.17302 	   4.22588
    7.88516 	   2.50057 	   3.81880
    7.88706 	   2.17302 	   4.21808
    7.88707 	   2.82635 	   4.21952
    9.29105 	   2.82635 	   4.21283
    9.28915 	   2.50057 	   3.81212
    9.29105 	   2.17302 	   4.21139
    9.65218 	   2.50040 	   3.88839
    9.65217 	   2.49374 	   3.88576
    9.58210 	   2.49369 	   3.90716
    9.60015 	   2.50025 	   3.95730
    9.58233 	   2.48852 	   3.95736
    9.55597 	   2.48383 	   3.95078
    9.58174 	   2.50053 	   3.83152
    9.55515 	   2.50054 	   3.82418
    9.52378 	   2.47790 	   3.94533
    9.52318 	   2.50056 	   3.81816
    9.58210 	   2.50703 	   3.90719
    9.65217 	   2.50707 	   3.88579
    9.58233 	   2.51198 	   3.95741
    9.55597 	   2.51669 	   3.95086
    9.52378 	   2.52265 	   3.94542
    9.83372 	   2.82635 	   4.21025
    9.64205 	   2.82635 	   4.21116
    9.83277 	   2.50012 	   4.01220
    9.64093 	   2.50020 	   3.97686
    9.52505 	   2.82635 	   4.21172
    9.64204 	   2.17302 	   4.20972
    9.83371 	   2.17302 	   4.20880
    9.52505 	   2.17302 	   4.21027
    9.42911 	   2.17302 	   4.21073
    9.42912 	   2.82635 	   4.21218
    9.83371 	   2.49969 	   4.20953
    9.65207 	   2.50045 	   3.86439
    9.42721 	   2.50057 	   3.81146
    5.13658 	   2.51711 	   4.01860
    5.13630 	   2.52691 	   3.95889
    5.13575 	   2.50055 	   3.84367
    5.13630 	   2.47368 	   3.95877
    5.13658 	   2.48321 	   4.01853
    5.07783 	   2.47752 	   3.96546
    5.07802 	   2.49102 	   4.00549
    5.07808 	   2.50016 	   4.01884
    5.07802 	   2.50936 	   4.00553
    5.07783 	   2.52304 	   3.96556
    5.06759 	   2.50019 	   4.00556
    5.01933 	   2.52088 	   3.96583
    5.01952 	   2.50019 	   4.00579
    5.01933 	   2.47968 	   3.96574
    5.07732 	   2.50051 	   3.85891
    5.01894 	   2.50046 	   3.88502
    4.94192 	   2.50028 	   3.96616
    5.13759 	   2.69206 	   4.23232
    5.13759 	   2.30732 	   4.23147
    4.93851 	   2.49969 	   4.23284
    5.13708 	   2.57076 	   4.12539
    5.02504 	   2.49992 	   4.12576
    5.13708 	   2.42908 	   4.12507
    5.21454 	   2.73111 	   4.23155
    5.23316 	   2.73914 	   4.23122
    5.25195 	   2.74676 	   4.23112
    5.27091 	   2.75397 	   4.23121
    5.29001 	   2.76076 	   4.23140
    5.30927 	   2.76714 	   4.23162
    5.32865 	   2.77310 	   4.23177
    5.34815 	   2.77867 	   4.23182
    5.36776 	   2.78386 	   4.23176
    5.38745 	   2.78871 	   4.23161
    5.40722 	   2.79325 	   4.23141
    5.42705 	   2.79750 	   4.23119
    5.44693 	   2.80148 	   4.23100
    5.46687 	   2.80519 	   4.23084
    5.48686 	   2.80864 	   4.23074
    5.50689 	   2.81179 	   4.23068
    5.52697 	   2.81464 	   4.23065
    5.19605 	   2.70775 	   4.22084
    5.19599 	   2.69306 	   4.20926
    5.19593 	   2.67863 	   4.19735
    5.19588 	   2.66444 	   4.18517
    5.19582 	   2.65041 	   4.17279
    5.19576 	   2.63651 	   4.16027
    5.19570 	   2.62282 	   4.14752
    5.19564 	   2.60936 	   4.13454
    5.19551 	   2.58332 	   4.10846
    5.19545 	   2.57072 	   4.09541
    5.19538 	   2.55862 	   4.08188
    5.19532 	   2.54773 	   4.06737
    5.19524 	   2.53854 	   4.05174
    5.19516 	   2.53186 	   4.03489
    5.19498 	   2.52774 	   3.99747
    5.19489 	   2.52922 	   3.97786
    5.19480 	   2.53210 	   3.95841
    5.19470 	   2.53503 	   3.93896
    5.19461 	   2.53678 	   3.91939
    5.19452 	   2.53605 	   3.89975
    5.19442 	   2.53308 	   3.88032
    5.19434 	   2.52716 	   3.86160
    5.19425 	   2.51737 	   3.84461
    5.52568 	   2.50057 	   3.82994
    5.50617 	   2.50057 	   3.82995
    5.48666 	   2.50057 	   3.83000
    5.46715 	   2.50057 	   3.83011
    5.44764 	   2.50057 	   3.83028
    5.42813 	   2.50057 	   3.83051
    5.40863 	   2.50057 	   3.83076
    5.38912 	   2.50057 	   3.83100
    5.36961 	   2.50057 	   3.83118
    5.35010 	   2.50057 	   3.83125
    5.33059 	   2.50057 	   3.83120
    5.31108 	   2.50057 	   3.83106
    5.29157 	   2.50057 	   3.83094
    5.27206 	   2.50057 	   3.83097
    5.25256 	   2.50057 	   3.83135
    5.23307 	   2.50057 	   3.83222
    5.21361 	   2.50057 	   3.83367
    5.54701 	   2.80911 	   4.21241
    5.54693 	   2.79937 	   4.19503
    5.54685 	   2.78805 	   4.17862
    5.54677 	   2.77575 	   4.16293
    5.54670 	   2.76274 	   4.14782
    5.54663 	   2.74924 	   4.13315
    5.54656 	   2.73539 	   4.11880
    5.54650 	   2.72129 	   4.10472
    5.54643 	   2.70691 	   4.09090
    5.54637 	   2.69264 	   4.07697
    5.54630 	   2.67883 	   4.06260
    5.54623 	   2.66549 	   4.04777
    5.54615 	   2.65257 	   4.03259
    5.54608 	   2.64012 	   4.01702
    5.54600 	   2.62809 	   4.00112
    5.54593 	   2.61621 	   3.98511
    5.54585 	   2.60432 	   3.96910
    5.54577 	   2.59247 	   3.95307
    5.54570 	   2.58061 	   3.93704
    5.54562 	   2.56904 	   3.92080
    5.54554 	   2.55830 	   3.90401
    5.54546 	   2.54918 	   3.88629
    5.54537 	   2.54204 	   3.86768
    5.54528 	   2.53308 	   3.84994
    5.54522 	   2.51919 	   3.83579
    5.19498 	   2.47267 	   3.99734
    5.19489 	   2.47128 	   3.97774
    5.19480 	   2.46849 	   3.95827
    5.19470 	   2.46564 	   3.93881
    5.19461 	   2.46398 	   3.91923
    5.19452 	   2.46479 	   3.89959
    5.19442 	   2.46785 	   3.88018
    5.19433 	   2.47385 	   3.86148
    5.19425 	   2.48372 	   3.84453
    5.19551 	   2.41660 	   4.10809
    5.19545 	   2.42926 	   4.09509
    5.19538 	   2.44141 	   4.08162
    5.19531 	   2.45237 	   4.06716
    5.19524 	   2.46163 	   4.05157
    5.19516 	   2.46839 	   4.03475
    5.19604 	   2.29168 	   4.21992
    5.19599 	   2.30642 	   4.20840
    5.19593 	   2.32090 	   4.19656
    5.19587 	   2.33515 	   4.18444
    5.19581 	   2.34923 	   4.17213
    5.19576 	   2.36318 	   4.15967
    5.19569 	   2.37693 	   4.14698
    5.19563 	   2.39045 	   4.13406
    5.21453 	   2.26827 	   4.23052
    5.23315 	   2.26024 	   4.23016
    5.25195 	   2.25262 	   4.23003
    5.27090 	   2.24541 	   4.23008
    5.29001 	   2.23861 	   4.23025
    5.30926 	   2.23224 	   4.23043
    5.32865 	   2.22627 	   4.23056
    5.34815 	   2.22071 	   4.23059
    5.36775 	   2.21551 	   4.23051
    5.38745 	   2.21067 	   4.23034
    5.40721 	   2.20613 	   4.23011
    5.42704 	   2.20188 	   4.22988
    5.44693 	   2.19790 	   4.22966
    5.46687 	   2.19418 	   4.22949
    5.48685 	   2.19074 	   4.22937
    5.50689 	   2.18759 	   4.22930
    5.52697 	   2.18474 	   4.22926
    5.54700 	   2.19034 	   4.21104
    5.54692 	   2.20016 	   4.19370
    5.54684 	   2.21156 	   4.17735
    5.54677 	   2.22393 	   4.16171
    5.54670 	   2.23700 	   4.14666
    5.54663 	   2.25057 	   4.13205
    5.54656 	   2.26448 	   4.11776
    5.54649 	   2.27865 	   4.10374
    5.54643 	   2.29308 	   4.08998
    5.54636 	   2.30741 	   4.07612
    5.54629 	   2.32129 	   4.06181
    5.54622 	   2.33469 	   4.04704
    5.54615 	   2.34768 	   4.03192
    5.54608 	   2.36020 	   4.01640
    5.54600 	   2.37230 	   4.00055
    5.54593 	   2.38425 	   3.98459
    5.54585 	   2.39621 	   3.96864
    5.54577 	   2.40814 	   3.95266
    5.54570 	   2.42006 	   3.93668
    5.54562 	   2.43171 	   3.92050
    5.54554 	   2.44252 	   3.90375
    5.54546 	   2.45172 	   3.88607
    5.54537 	   2.45894 	   3.86750
    5.54528 	   2.46798 	   3.84980
    5.54522 	   2.48193 	   3.83570
    5.19610 	   2.30294 	   4.23118
    5.19610 	   2.32917 	   4.23124
    5.19610 	   2.35540 	   4.23130
    5.19610 	   2.38164 	   4.23135
    5.19610 	   2.40787 	   4.23141
    5.19610 	   2.43410 	   4.23147
    5.19610 	   2.46034 	   4.23153
    5.19610 	   2.48657 	   4.23159
    5.19610 	   2.51280 	   4.23165
    5.19610 	   2.53904 	   4.23170
    5.19610 	   2.56527 	   4.23176
    5.19610 	   2.59151 	   4.23182
    5.19610 	   2.61774 	   4.23188
    5.19610 	   2.64397 	   4.23194
    5.19610 	   2.67021 	   4.23199
    5.19610 	   2.69644 	   4.23205
    5.54709 	   2.24570 	   4.22938
    5.54709 	   2.30920 	   4.22952
    5.54709 	   2.37270 	   4.22966
    5.54709 	   2.43619 	   4.22980
    5.54709 	   2.49969 	   4.22994
    5.54709 	   2.56318 	   4.23008
    5.54710 	   2.62668 	   4.23023
    5.54710 	   2.69018 	   4.23037
    5.54710 	   2.75367 	   4.23051
    6.24898 	   2.82641 	   4.20398
    6.24887 	   2.82646 	   4.18063
    6.24876 	   2.82651 	   4.15729
    6.24864 	   2.82656 	   4.13394
    6.24853 	   2.82661 	   4.11060
    6.24842 	   2.82637 	   4.08726
    6.24831 	   2.82470 	   4.06398
    6.24820 	   2.82075 	   4.04098
    6.24810 	   2.81386 	   4.01870
    6.24800 	   2.80362 	   3.99775
    6.24790 	   2.79091 	   3.97817
    6.24781 	   2.77668 	   3.95967
    6.24773 	   2.76140 	   3.94202
    6.24765 	   2.74556 	   3.92488
    6.24757 	   2.72946 	   3.90797
    6.24749 	   2.71314 	   3.89128
    6.24741 	   2.69655 	   3.87485
    6.24734 	   2.67935 	   3.85908
    6.24727 	   2.66065 	   3.84514
    6.24722 	   2.63977 	   3.83478
    6.24719 	   2.61719 	   3.82898
    6.24718 	   2.59395 	   3.82695
    6.24718 	   2.57061 	   3.82676
    6.24718 	   2.54726 	   3.82671
    6.24718 	   2.52392 	   3.82666
    5.58592 	   2.82110 	   4.23063
    5.62484 	   2.82383 	   4.23057
    5.66382 	   2.82550 	   4.23041
    5.70283 	   2.82632 	   4.23018
    5.74185 	   2.82652 	   4.22988
    5.78087 	   2.82636 	   4.22955
    5.81988 	   2.82604 	   4.22924
[...]
CELL_DATA 	      9403
SCALARS 	cell_scalars 	FLOAT 	         1
LOOKUP_TABLE 	DEFAULT
    -0.48758E+02
    -0.52395E+02
    -0.46207E+02
    -0.49751E+02
    -0.50138E+02
    -0.46685E+02
    -0.51705E+02
    -0.53415E+02
    -0.47810E+02
    -0.47255E+02
    -0.52698E+02
    -0.52940E+02
    -0.44065E+02
    -0.40991E+02
    -0.48484E+02
    -0.54122E+02
    -0.46686E+02
    -0.35161E+02
    -0.59332E+02
    -0.60111E+02
    -0.59556E+02
    -0.59899E+02
    -0.60261E+02
    -0.59736E+02
    -0.62024E+02
    -0.61950E+02
    -0.58230E+02
    -0.58702E+02
    -0.61825E+02
    -0.58998E+02
    -0.55612E+02
    -0.54939E+02
    -0.57724E+02
    -0.56609E+02
    -0.55444E+02
    -0.53133E+02
    -0.67023E+02
    -0.65346E+02
    -0.65572E+02
    -0.65687E+02
    -0.64513E+02
    -0.64263E+02
    -0.65508E+02
    -0.64906E+02
    -0.62001E+02
    -0.62979E+02
    -0.65543E+02
    -0.62207E+02
    -0.62201E+02
    -0.65285E+02
    -0.61078E+02
    -0.56346E+02
    -0.59317E+02
    -0.62591E+02
    -0.69527E+02
    -0.70005E+02
    -0.70809E+02
    -0.70729E+02
    -0.70646E+02
    -0.69210E+02
    -0.69775E+02
    -0.69479E+02
    -0.65898E+02
    -0.65566E+02
    -0.67843E+02
    -0.64198E+02
    -0.62699E+02
    -0.65049E+02
    -0.62005E+02
    -0.60807E+02
    -0.64916E+02
    -0.63375E+02
    -0.68748E+02
    -0.71133E+02
    -0.70675E+02
    -0.70959E+02
    -0.71756E+02
    -0.70749E+02
    -0.71692E+02
    -0.70730E+02
    -0.68699E+02
    -0.68912E+02
    -0.68985E+02
    -0.65122E+02
    -0.64317E+02
    -0.66055E+02
    -0.64420E+02
    -0.65424E+02
    -0.66533E+02
    -0.63919E+02
    -0.71699E+02
    -0.73592E+02
    -0.72129E+02
    -0.72879E+02
    -0.72148E+02
    -0.71667E+02
    -0.71580E+02
    -0.69714E+02
    -0.70697E+02
    -0.71900E+02
    -0.70169E+02
    -0.68060E+02
    -0.67891E+02
    -0.68352E+02
    -0.66605E+02
    -0.68908E+02
    -0.69180E+02
    -0.65686E+02
    -0.71648E+02
    -0.74822E+02
    -0.74414E+02
    -0.74203E+02
    -0.74336E+02
    -0.73539E+02
    -0.72509E+02
    -0.70998E+02
    -0.73391E+02
    -0.74051E+02
    -0.70910E+02
    -0.69716E+02
    -0.68654E+02
    -0.69012E+02
    -0.68037E+02
    -0.68507E+02
    -0.68393E+02
    -0.65913E+02
    -0.70215E+02
    -0.74193E+02
    -0.73756E+02
    -0.72887E+02
    -0.73013E+02
    -0.71500E+02
    -0.71442E+02
    -0.72267E+02
    -0.74287E+02
    -0.76725E+02
    -0.73292E+02
    -0.72031E+02
    -0.71288E+02
    -0.70242E+02
    -0.70224E+02
    -0.70604E+02
    -0.68072E+02
    -0.65452E+02
    -0.70752E+02
    -0.74339E+02
    -0.73837E+02
    -0.72823E+02
    -0.72899E+02
    -0.71664E+02
    -0.73251E+02
    -0.73644E+02
    -0.72500E+02
    -0.75174E+02
    -0.75102E+02
    -0.74021E+02
    -0.76010E+02
    -0.73264E+02
    -0.71827E+02
    -0.71886E+02
    -0.68984E+02
    -0.66468E+02
    -0.69658E+02
    -0.72434E+02
    -0.73764E+02
    -0.73584E+02
    -0.74504E+02
    -0.74603E+02
    -0.75354E+02
    -0.75450E+02
    -0.73153E+02
    -0.74273E+02
    -0.74599E+02
    -0.73172E+02
    -0.73676E+02
    -0.72146E+02
    -0.71207E+02
    -0.72961E+02
    -0.71594E+02
    -0.67991E+02
    -0.68428E+02
    -0.70271E+02
    -0.70617E+02
    -0.70692E+02
    -0.73022E+02
    -0.73765E+02
    -0.74183E+02
    -0.74785E+02
    -0.72930E+02
    -0.72693E+02
    -0.74307E+02
    -0.73805E+02
    -0.71224E+02
    -0.69219E+02
    -0.67775E+02
    -0.67150E+02
    -0.67434E+02
    -0.65118E+02
    -0.67966E+02
    -0.69107E+02
    -0.68278E+02
    -0.69517E+02
    -0.68264E+02
    -0.68879E+02
    -0.69810E+02
    -0.68822E+02
    -0.67563E+02
    -0.66211E+02
    -0.65399E+02
    -0.66580E+02
    -0.64628E+02
    -0.65609E+02
    -0.65431E+02
    -0.63007E+02
    -0.63280E+02
    -0.61931E+02
    -0.62767E+02
    -0.63473E+02
    -0.63038E+02
    -0.64297E+02
    -0.61242E+02
    -0.62905E+02
    -0.63002E+02
    -0.61572E+02
    -0.62538E+02
    -0.62173E+02
    -0.61605E+02
    -0.60755E+02
    -0.58981E+02
    -0.60379E+02
    -0.59594E+02
    -0.59122E+02
    -0.60063E+02
    -0.57419E+02
    -0.58626E+02
    -0.57301E+02
    -0.57605E+02
    -0.57715E+02
    -0.57440E+02
    -0.57047E+02
    -0.54613E+02
    -0.56664E+02
    -0.57086E+02
    -0.54945E+02
    -0.56353E+02
    -0.55363E+02
    -0.53822E+02
    -0.53739E+02
    -0.52794E+02
    -0.54644E+02
    -0.52538E+02
    -0.49858E+02
    -0.56415E+02
    -0.52926E+02
    -0.46465E+02
    -0.50385E+02
    -0.52401E+02
    -0.48163E+02
    -0.49888E+02
    -0.51091E+02
    -0.47317E+02
    -0.49915E+02
    -0.51619E+02
    -0.45197E+02
    -0.44522E+02
    -0.46724E+02
    -0.43605E+02
    -0.39275E+02
    -0.35967E+02
    -0.35371E+02
    -0.53925E+02
    -0.50202E+02
    -0.41953E+02
    -0.45103E+02
    -0.49738E+02
    -0.44657E+02
    -0.38442E+02
    -0.41174E+02
    -0.41637E+02
    -0.35774E+02
    -0.34157E+02
    -0.30833E+02
    -0.21441E+02
    -0.14360E+02
    -0.72248E+01
    -0.97820E+00
     0.17611E+02
     0.26518E+02
    -0.46921E+02
    -0.40326E+02
    -0.34802E+02
    -0.35035E+02
    -0.41875E+02
    -0.35017E+02
    -0.22852E+02
    -0.10033E+02
    -0.71507E+01
    -0.58593E+01
     0.85516E+01
     0.28265E+02
     0.38707E+02
     0.51259E+02
     0.86968E+02
     0.95470E+02
     0.12015E+03
     0.13648E+03
    -0.20967E+02
    -0.38318E+01
     0.88199E+01
     0.30768E+01
    -0.20975E+01
     0.13043E+02
     0.35664E+02
     0.52996E+02
     0.79566E+02
     0.96589E+02
     0.10419E+03
     0.13082E+03
     0.14394E+03
     0.18061E+03
     0.22030E+03
     0.22298E+03
     0.26510E+03
     0.28210E+03
     0.68365E+02
     0.93506E+02
     0.11100E+03
     0.99481E+02
     0.10648E+03
     0.13392E+03
     0.15815E+03
     0.17971E+03
     0.20175E+03
     0.23036E+03
     0.26961E+03
     0.29410E+03
     0.29404E+03
     0.32858E+03
     0.35949E+03
     0.38465E+03
     0.42278E+03
     0.43562E+03
     0.21508E+03
     0.24122E+03
     0.26241E+03
     0.25945E+03
     0.27793E+03
     0.30868E+03
     0.32585E+03
     0.34449E+03
     0.36413E+03
     0.38733E+03
     0.42056E+03
     0.44721E+03
     0.46843E+03
     0.50921E+03
     0.53306E+03
     0.53658E+03
     0.55860E+03
     0.59341E+03
     0.39128E+03
     0.41568E+03
     0.43363E+03
     0.45586E+03
     0.48293E+03
     0.50253E+03
     0.51657E+03
     0.53076E+03
     0.54625E+03
     0.56336E+03
     0.58541E+03
     0.60910E+03
     0.63227E+03
     0.66143E+03
     0.68955E+03
     0.70839E+03
     0.72917E+03
     0.76404E+03
     0.57851E+03
     0.59930E+03
     0.61026E+03
     0.64788E+03
     0.68143E+03
     0.69999E+03
     0.71980E+03
     0.73539E+03
     0.74618E+03
     0.75818E+03
     0.77511E+03
     0.79347E+03
     0.81219E+03
     0.83422E+03
     0.85908E+03
     0.88137E+03
     0.90102E+03
     0.92246E+03
     0.77208E+03
     0.79388E+03
     0.80597E+03
     0.83090E+03
     0.86098E+03
     0.88841E+03
     0.91222E+03
     0.92804E+03
     0.93992E+03
     0.95343E+03
     0.96997E+03
     0.98738E+03
     0.10060E+04
     0.10269E+04
     0.10490E+04
     0.10708E+04
     0.10908E+04
     0.11054E+04
     0.97160E+03
     0.10006E+04
     0.10184E+04
     0.10348E+04
     0.10540E+04
     0.10717E+04
     0.10877E+04
     0.11027E+04
     0.11192E+04
     0.11370E+04
     0.11546E+04
     0.11715E+04
     0.11886E+04
     0.12076E+04
     0.12277E+04
     0.12471E+04
     0.12640E+04
     0.12789E+04
     0.11587E+04
     0.11934E+04
     0.12125E+04
     0.12274E+04
     0.12428E+04
     0.12574E+04
     0.12717E+04
     0.12854E+04
     0.13006E+04
     0.13170E+04
     0.13328E+04
     0.13470E+04
     0.13612E+04
     0.13768E+04
     0.13936E+04
     0.14112E+04
     0.14257E+04
     0.14394E+04
     0.12874E+04
     0.13140E+04
     0.13396E+04
     0.13677E+04
     0.13882E+04
     0.14014E+04
     0.14127E+04
     0.14245E+04
     0.14380E+04
     0.14535E+04
     0.14688E+04
     0.14814E+04
     0.14938E+04
     0.15076E+04
     0.15229E+04
     0.15404E+04
     0.15548E+04
     0.15648E+04
    -0.29982E+02
    -0.35410E+02
    -0.46516E+02
    -0.46926E+02
    -0.42892E+02
    -0.31757E+02
    -0.32947E+02
    -0.45615E+02
    -0.45118E+02
    -0.37019E+02
    -0.43286E+02
    -0.47591E+02
    -0.32952E+02
    -0.29515E+02
    -0.40608E+02
    -0.30336E+02
    -0.31311E+02
    -0.45536E+02
    -0.54355E+02
    -0.56482E+02
    -0.56892E+02
    -0.57697E+02
    -0.59000E+02
    -0.56940E+02
    -0.57683E+02
    -0.62265E+02
    -0.60004E+02
    -0.57734E+02
    -0.60025E+02
    -0.59680E+02
    -0.57153E+02
    -0.59412E+02
    -0.60767E+02
    -0.57302E+02
    -0.58990E+02
    -0.60008E+02
    -0.61472E+02
    -0.61871E+02
    -0.58784E+02
    -0.60011E+02
    -0.63999E+02
    -0.59940E+02
    -0.60158E+02
    -0.64107E+02
    -0.63395E+02
    -0.62987E+02
    -0.64382E+02
    -0.65720E+02
    -0.65383E+02
    -0.64717E+02
    -0.65621E+02
    -0.65443E+02
    -0.65218E+02
    -0.66533E+02
    -0.61191E+02
    -0.65576E+02
    -0.63947E+02
    -0.62667E+02
    -0.64952E+02
    -0.66073E+02
    -0.65694E+02
    -0.66399E+02
    -0.65824E+02
    -0.66873E+02
    -0.69127E+02
    -0.70281E+02
    -0.69667E+02
    -0.69893E+02
    -0.70702E+02
    -0.71009E+02
    -0.70213E+02
    -0.69959E+02
    -0.63708E+02
    -0.66713E+02
    -0.66087E+02
    -0.64650E+02
    -0.66718E+02
    -0.68391E+02
    -0.67796E+02
    -0.69416E+02
    -0.69742E+02
    -0.69700E+02
    -0.71403E+02
    -0.72401E+02
    -0.70844E+02
    -0.71863E+02
    -0.71781E+02
    -0.70938E+02
    -0.70529E+02
    -0.68690E+02
    -0.63517E+02
    -0.67664E+02
    -0.68078E+02
    -0.66618E+02
    -0.68705E+02
    -0.68712E+02
    -0.68585E+02
    -0.70103E+02
    -0.71765E+02
    -0.70716E+02
    -0.70681E+02
    -0.72319E+02
    -0.71207E+02
    -0.72331E+02
    -0.73252E+02
    -0.71772E+02
    -0.72740E+02
    -0.71662E+02
    -0.64047E+02
    -0.67538E+02
    -0.68940E+02
    -0.68795E+02
    -0.69174E+02
    -0.68960E+02
    -0.70142E+02
    -0.70962E+02
    -0.74013E+02
    -0.73446E+02
    -0.71668E+02
    -0.72079E+02
    -0.72352E+02
    -0.75105E+02
    -0.74807E+02
    -0.74436E+02
    -0.74673E+02
    -0.72299E+02
    -0.65492E+02
    -0.67614E+02
    -0.70396E+02
    -0.70382E+02
    -0.70032E+02
    -0.71094E+02
    -0.72416E+02
    -0.73511E+02
    -0.77158E+02
    -0.74738E+02
    -0.72433E+02
    -0.72065E+02
    -0.72516E+02
    -0.74522E+02
    -0.73758E+02
    -0.73572E+02
    -0.74239E+02
    -0.70810E+02
    -0.66023E+02
    -0.68141E+02
    -0.71155E+02
    -0.71542E+02
    -0.72944E+02
    -0.75781E+02
    -0.74411E+02
    -0.75095E+02
    -0.76163E+02
    -0.73389E+02
    -0.73629E+02
    -0.73251E+02
    -0.71514E+02
    -0.72366E+02
    -0.72923E+02
    -0.73594E+02
    -0.74494E+02
    -0.71784E+02
    -0.65973E+02
    -0.69809E+02
    -0.72383E+02
    -0.71010E+02
    -0.71915E+02
    -0.75015E+02
    -0.74116E+02
    -0.74706E+02
    -0.74602E+02
    -0.73232E+02
    -0.75411E+02
    -0.75343E+02
    -0.73264E+02
    -0.73055E+02
    -0.73906E+02
    -0.74224E+02
    -0.73332E+02
    -0.71822E+02
    -0.64283E+02
    -0.66931E+02
    -0.67072E+02
    -0.67446E+02
    -0.69082E+02
    -0.71717E+02
    -0.74328E+02
    -0.75138E+02
    -0.73289E+02
    -0.72929E+02
    -0.75532E+02
    -0.75389E+02
    -0.74269E+02
    -0.72913E+02
    -0.71014E+02
    -0.70894E+02
    -0.71052E+02
    -0.70199E+02
    -0.61770E+02
    -0.63105E+02
    -0.63809E+02
    -0.65860E+02
    -0.66103E+02
    -0.65250E+02
    -0.67482E+02
    -0.67202E+02
    -0.67266E+02
    -0.67580E+02
    -0.68853E+02
    -0.70313E+02
    -0.69358E+02
    -0.68306E+02
    -0.69611E+02
    -0.68545E+02
    -0.69838E+02
    -0.69456E+02
    -0.57601E+02
    -0.60015E+02
    -0.60289E+02
    -0.60496E+02
    -0.61076E+02
    -0.59268E+02
    -0.60985E+02
    -0.61823E+02
    -0.61978E+02
    -0.62735E+02
    -0.62212E+02
    -0.63781E+02
    -0.63279E+02
    -0.61524E+02
    -0.64656E+02
    -0.63377E+02
    -0.63951E+02
    -0.63654E+02
    -0.49492E+02
    -0.51709E+02
    -0.54572E+02
    -0.53312E+02
    -0.54166E+02
    -0.53891E+02
    -0.55080E+02
    -0.55939E+02
    -0.54976E+02
    -0.57667E+02
    -0.57612E+02
    -0.55361E+02
    -0.56934E+02
    -0.57542E+02
    -0.58220E+02
    -0.57604E+02
    -0.57251E+02
    -0.59381E+02
    -0.34206E+02
    -0.34029E+02
    -0.38969E+02
    -0.44079E+02
    -0.46328E+02
    -0.44267E+02
    -0.45250E+02
    -0.51768E+02
    -0.50660E+02
    -0.47884E+02
    -0.51049E+02
    -0.49301E+02
    -0.47628E+02
    -0.52500E+02
    -0.50463E+02
    -0.46510E+02
    -0.53013E+02
    -0.56745E+02
     0.28777E+02
     0.17887E+02
    -0.34259E+01
    -0.68024E+01
    -0.13710E+02
    -0.22065E+02
    -0.30810E+02
    -0.34035E+02
    -0.36301E+02
    -0.42139E+02
    -0.41564E+02
    -0.38800E+02
    -0.44570E+02
    -0.48607E+02
    -0.44019E+02
    -0.42423E+02
    -0.50478E+02
    -0.54103E+02
     0.13725E+03
     0.11987E+03
     0.95486E+02
     0.89196E+02
     0.52117E+02
     0.37392E+02
     0.26902E+02
     0.80274E+01
    -0.62647E+01
    -0.87498E+01
    -0.11332E+02
    -0.23293E+02
    -0.34800E+02
    -0.39466E+02
    -0.32423E+02
    -0.35007E+02
    -0.40812E+02
    -0.47441E+02
     0.28463E+03
     0.26341E+03
     0.22547E+03
     0.22330E+03
     0.18084E+03
     0.14272E+03
     0.12985E+03
     0.10866E+03
     0.96586E+02
     0.75066E+02
     0.51253E+02
     0.35103E+02
     0.13703E+02
     0.43390E+01
     0.74232E+01
     0.90412E+01
    -0.48558E+01
    -0.22776E+02
     0.43904E+03
     0.42053E+03
     0.38743E+03
     0.36319E+03
     0.32721E+03
     0.29595E+03
     0.29637E+03
     0.26731E+03
     0.22870E+03
     0.19970E+03
     0.17822E+03
     0.15583E+03
     0.13380E+03
     0.10997E+03
     0.10388E+03
     0.11216E+03
     0.92548E+02
     0.64793E+02
     0.59330E+03
     0.55929E+03
     0.53883E+03
     0.53691E+03
     0.50459E+03
     0.46859E+03
     0.44875E+03
     0.42006E+03
     0.38677E+03
     0.36260E+03
     0.34236E+03
     0.32440E+03
     0.30754E+03
     0.27715E+03
     0.26053E+03
     0.26415E+03
     0.24186E+03
     0.21391E+03
     0.76195E+03
     0.72912E+03
     0.70859E+03
     0.68994E+03
     0.66013E+03
     0.63285E+03
     0.61033E+03
     0.58640E+03
     0.56393E+03
     0.54542E+03
     0.52988E+03
     0.51610E+03
     0.50499E+03
     0.48179E+03
     0.44907E+03
     0.43235E+03
     0.41606E+03
     0.39111E+03
     0.92294E+03
     0.90108E+03
     0.88133E+03
     0.85905E+03
     0.83447E+03
     0.81366E+03
     0.79598E+03
     0.77831E+03
     0.76214E+03
     0.74867E+03
     0.73295E+03
     0.71338E+03
     0.69861E+03
     0.67699E+03
     0.63729E+03
     0.60995E+03
     0.60018E+03
     0.57898E+03
     0.11080E+04
     0.10893E+04
     0.10689E+04
     0.10469E+04
     0.10258E+04
     0.10066E+04
     0.98849E+03
     0.97122E+03
     0.95544E+03
     0.94109E+03
     0.92452E+03
     0.90376E+03
     0.88102E+03
     0.85494E+03
     0.82975E+03
     0.81347E+03
     0.79699E+03
     0.77307E+03
     0.12799E+04
     0.12638E+04
     0.12460E+04
     0.12265E+04
     0.12075E+04
     0.11893E+04
     0.11719E+04
     0.11545E+04
     0.11363E+04
     0.11182E+04
     0.11025E+04
     0.10883E+04
     0.10719E+04
     0.10545E+04
     0.10385E+04
     0.10219E+04
     0.10001E+04
     0.97071E+03
     0.14413E+04
     0.14282E+04
     0.14130E+04
     0.13959E+04
     0.13794E+04
     0.13635E+04
     0.13487E+04
     0.13340E+04
     0.13175E+04
     0.13005E+04
     0.12854E+04
     0.12719E+04
     0.12581E+04
     0.12450E+04
     0.12311E+04
     0.12131E+04
     0.11872E+04
     0.11527E+04
     0.15649E+04
     0.15552E+04
     0.15410E+04
     0.15239E+04
     0.15085E+04
     0.14946E+04
     0.14820E+04
     0.14693E+04
     0.14538E+04
     0.14382E+04
     0.14247E+04
     0.14130E+04
     0.14017E+04
     0.13886E+04
     0.13681E+04
     0.13396E+04
     0.13134E+04
     0.12866E+04
    -0.46115E+01
    -0.11439E+02
    -0.12942E+02
    -0.20116E+02
    -0.12755E+02
    -0.32014E+02
    -0.36144E+02
    -0.26344E+02
    -0.17283E+02
    -0.14080E+02
    -0.26193E+00
    -0.15665E+02
    -0.14395E+02
    -0.32110E+02
    -0.42802E+02
    -0.33927E+02
    -0.35677E+02
    -0.49145E+02
    -0.33526E+02
    -0.37334E+02
    -0.31531E+02
    -0.47736E+02
    -0.12954E+02
    -0.99549E+01
    -0.40158E+02
    -0.45966E+02
    -0.90017E+00
    -0.27583E+02
    -0.30867E+02
    -0.47108E+02
    -0.35563E+02
    -0.43122E+02
    -0.39758E+02
    -0.52809E+02
    -0.25871E+02
    -0.41809E+02
    -0.24681E+02
    -0.35145E+02
    -0.19349E+02
    -0.27435E+02
    -0.20447E+02
    -0.35446E+02
    -0.35209E+02
    -0.48583E+02
    -0.40284E+02
    -0.47863E+02
    -0.33934E+02
    -0.41413E+02
    -0.31989E+02
    -0.43878E+02
    -0.43551E+02
    -0.52227E+02
    -0.17749E+02
    -0.31152E+02
    -0.22899E+02
    -0.32308E+02
    -0.18419E+02
    -0.24848E+02
    -0.84986E+01
    -0.79450E+01
    -0.26218E+00
    -0.15573E+02
    -0.20645E+02
    -0.36051E+02
    -0.26908E+02
    -0.35200E+02
    -0.18484E+02
    -0.25316E+02
    -0.16949E+02
    -0.36105E+02
    -0.13754E+02
    -0.13497E+02
    -0.11296E+02
    -0.12235E+02
    -0.11339E+02
    -0.12008E+02
    -0.10948E+02
    -0.11604E+02
    -0.10809E+02
    -0.11426E+02
    -0.11112E+02
    -0.10637E+02
    -0.97476E+01
    -0.10222E+02
    -0.97954E+01
    -0.10108E+02
    -0.89441E+01
    -0.94790E+01
    -0.93384E+01
    -0.10543E+02
    -0.97827E+01
    -0.10418E+02
    -0.10041E+02
    -0.11915E+02
    -0.11783E+02
    -0.12816E+02
    -0.12450E+02
    -0.14184E+02
    -0.14104E+02
    -0.17519E+02
    -0.41097E+02
    -0.48302E+02
    -0.19311E+02
    -0.11180E+02
    -0.96921E+01
    -0.48588E+01
    -0.10020E+02
    -0.76128E+01
    -0.72560E+01
    -0.68187E+01
    -0.10356E+02
    -0.29714E+01
    -0.70974E+01
    -0.17944E+02
    -0.10332E+02
    -0.19023E+02
    -0.16059E+02
    -0.18482E+02
    -0.16007E+02
    -0.19110E+02
    -0.15934E+02
    -0.22646E+02
    -0.17412E+02
    -0.23625E+02
    -0.19222E+02
    -0.27780E+02
    -0.20674E+02
    -0.13940E+02
    -0.13864E+02
    -0.14441E+02
    -0.13862E+02
    -0.12789E+02
    -0.13413E+02
    -0.91677E+01
    -0.12055E+02
    -0.64407E+01
    -0.84921E+01
    -0.11089E+02
    -0.90696E+01
    -0.12738E+02
    -0.11516E+02
    -0.11543E+02
    -0.11946E+02
    -0.13415E+02
    -0.11388E+02
    -0.11020E+02
    -0.12324E+02
    -0.12981E+02
    -0.11227E+02
    -0.12463E+02
    -0.11675E+02
    -0.13801E+02
    -0.11760E+02
    -0.18845E+02
    -0.13816E+02
    -0.21785E+02
    -0.17280E+02
    -0.20585E+02
    -0.18149E+02
    -0.21897E+02
    -0.17706E+02
    -0.29061E+02
    -0.20444E+02
    -0.12656E+02
    -0.13149E+02
    -0.11156E+02
    -0.11309E+02
    -0.10904E+02
    -0.10893E+02
    -0.10619E+02
    -0.10701E+02
    -0.10894E+02
    -0.11118E+02
    -0.10420E+02
    -0.11476E+02
    -0.10666E+02
    -0.10664E+02
    -0.10664E+02
    -0.11237E+02
    -0.10405E+02
    -0.10770E+02
    -0.10221E+02
    -0.10529E+02
    -0.10421E+02
    -0.99841E+01
    -0.98724E+01
    -0.99956E+01
    -0.10017E+02
    -0.94475E+01
    -0.11169E+02
    -0.10580E+02
    -0.11164E+02
    -0.33344E+02
    -0.24621E+02
    -0.25892E+02
    -0.16654E+02
    -0.10069E+02
    -0.10121E+02
    -0.12847E+02
    -0.12308E+02
    -0.10863E+02
    -0.10654E+02
    -0.12788E+02
    -0.12647E+02
    -0.12634E+02
    -0.10191E+02
    -0.10170E+02
    -0.10371E+02
    -0.95725E+01
    -0.10434E+02
    -0.10995E+02
    -0.10605E+02
    -0.11598E+02
    -0.11185E+02
    -0.12379E+02
    -0.11755E+02
    -0.12520E+02
    -0.12813E+02
    -0.13113E+02
    -0.11941E+02
    -0.14033E+02
    -0.12862E+02
    -0.15027E+02
    -0.13956E+02
    -0.17992E+02
    -0.15073E+02
    -0.11420E+02
    -0.10516E+02
    -0.11832E+02
    -0.11535E+02
    -0.13807E+02
    -0.12285E+02
    -0.14264E+02
    -0.11377E+02
    -0.11971E+02