# vtk DataFile Version 3.14.1
BMesh by KP LIAO
ASCII
DATASET UNSTRUCTURED_GRID
POINTS 	      8150 	FLOAT
    5.19564 	   2.72243 	   4.22653
    5.19546 	   2.59601 	   4.11557
    5.19528 	   2.52852 	   4.01118
    5.19497 	   2.50101 	   3.82975
    5.54596 	   2.50102 	   3.82505
    5.54664 	   2.81692 	   4.22630
    5.19528 	   2.47206 	   4.01096
    5.19545 	   2.40375 	   4.11481
    5.19564 	   2.27646 	   4.22476
    5.54664 	   2.18196 	   4.22379
    6.24864 	   2.82611 	   4.22515
    6.24796 	   2.50102 	   3.82386
    6.24864 	   2.17278 	   4.22256
    7.88596 	   2.50102 	   3.82108
    7.88664 	   2.17278 	   4.21979
    7.88664 	   2.82611 	   4.22237
    9.29064 	   2.82611 	   4.21999
    9.28996 	   2.50102 	   3.81870
    9.29063 	   2.17278 	   4.21740
    9.65276 	   2.50072 	   3.89608
    9.65275 	   2.49406 	   3.89344
    9.58261 	   2.49398 	   3.91463
    9.60051 	   2.50044 	   3.96484
    9.58270 	   2.48871 	   3.96482
    9.55635 	   2.48404 	   3.95815
    9.58249 	   2.50094 	   3.83900
    9.55593 	   2.50097 	   3.83158
    9.52419 	   2.47812 	   3.95259
    9.52397 	   2.50100 	   3.82546
    9.58261 	   2.50731 	   3.91468
    9.65275 	   2.50739 	   3.89349
    9.58270 	   2.51218 	   3.96491
    9.55635 	   2.51690 	   3.95828
    9.52419 	   2.52287 	   3.95276
    9.83331 	   2.82611 	   4.21907
    9.64164 	   2.82611 	   4.21939
    9.83297 	   2.50022 	   4.02044
    9.64124 	   2.50037 	   3.98452
    9.52464 	   2.82611 	   4.21959
    9.64163 	   2.17278 	   4.21681
    9.83330 	   2.17278 	   4.21648
    9.52463 	   2.17278 	   4.21701
    9.42870 	   2.17278 	   4.21717
    9.42870 	   2.82611 	   4.21975
    9.83330 	   2.49944 	   4.21777
    9.65272 	   2.50081 	   3.87208
    9.42802 	   2.50102 	   3.81846
    5.13677 	   2.51723 	   4.01248
    5.13668 	   2.52714 	   3.95278
    5.13648 	   2.50098 	   3.83752
    5.13668 	   2.47391 	   3.95257
    5.13677 	   2.48334 	   4.01234
    5.07819 	   2.47774 	   3.95909
    5.07826 	   2.49117 	   3.99914
    5.07828 	   2.50029 	   4.01251
    5.07826 	   2.50951 	   3.99921
    5.07819 	   2.52326 	   3.95927
    5.06783 	   2.50034 	   3.99919
    5.01969 	   2.52110 	   3.95936
    5.01976 	   2.50034 	   3.99928
    5.01969 	   2.47990 	   3.95920
    5.07801 	   2.50092 	   3.85258
    5.01955 	   2.50082 	   3.87850
    4.94228 	   2.50050 	   3.95941
    5.13714 	   2.69181 	   4.22650
    5.13713 	   2.30707 	   4.22498
    4.93806 	   2.49944 	   4.22608
    5.13696 	   2.57070 	   4.11936
    5.02491 	   2.49986 	   4.11927
    5.13695 	   2.42902 	   4.11880
    5.21408 	   2.73086 	   4.22603
    5.23270 	   2.73889 	   4.22578
    5.25150 	   2.74652 	   4.22575
    5.27045 	   2.75373 	   4.22591
    5.28956 	   2.76052 	   4.22617
    5.30881 	   2.76689 	   4.22646
    5.32820 	   2.77285 	   4.22668
    5.34770 	   2.77842 	   4.22680
    5.36730 	   2.78361 	   4.22681
    5.38700 	   2.78846 	   4.22673
    5.40676 	   2.79300 	   4.22660
    5.42659 	   2.79725 	   4.22645
    5.44648 	   2.80123 	   4.22632
    5.46642 	   2.80495 	   4.22623
    5.48641 	   2.80839 	   4.22620
    5.50644 	   2.81154 	   4.22620
    5.52652 	   2.81439 	   4.22624
    5.19562 	   2.70752 	   4.21523
    5.19561 	   2.69285 	   4.20362
    5.19558 	   2.67845 	   4.19169
    5.19556 	   2.66427 	   4.17948
    5.19554 	   2.65026 	   4.16708
    5.19552 	   2.63639 	   4.15454
    5.19550 	   2.62272 	   4.14177
    5.19548 	   2.60928 	   4.12876
    5.19543 	   2.58329 	   4.10263
    5.19541 	   2.57071 	   4.08956
    5.19539 	   2.55864 	   4.07601
    5.19536 	   2.54777 	   4.06148
    5.19534 	   2.53861 	   4.04583
    5.19531 	   2.53195 	   4.02898
    5.19525 	   2.52790 	   3.99154
    5.19521 	   2.52942 	   3.97194
    5.19518 	   2.53233 	   3.95249
    5.19515 	   2.53529 	   3.93305
    5.19511 	   2.53707 	   3.91348
    5.19508 	   2.53638 	   3.89383
    5.19505 	   2.53344 	   3.87440
    5.19501 	   2.52756 	   3.85567
    5.19499 	   2.51780 	   3.83866
    5.52645 	   2.50102 	   3.82498
    5.50694 	   2.50103 	   3.82493
    5.48744 	   2.50103 	   3.82492
    5.46793 	   2.50103 	   3.82497
    5.44842 	   2.50102 	   3.82508
    5.42891 	   2.50102 	   3.82525
    5.40940 	   2.50102 	   3.82545
    5.38989 	   2.50102 	   3.82563
    5.37038 	   2.50102 	   3.82574
    5.35087 	   2.50102 	   3.82575
    5.33136 	   2.50102 	   3.82564
    5.31185 	   2.50102 	   3.82545
    5.29234 	   2.50103 	   3.82526
    5.27283 	   2.50103 	   3.82523
    5.25333 	   2.50102 	   3.82555
    5.23384 	   2.50102 	   3.82636
    5.21438 	   2.50102 	   3.82775
    5.54661 	   2.80890 	   4.20806
    5.54658 	   2.79919 	   4.19065
    5.54656 	   2.78789 	   4.17423
    5.54653 	   2.77562 	   4.15852
    5.54650 	   2.76264 	   4.14338
    5.54648 	   2.74916 	   4.12869
    5.54645 	   2.73534 	   4.11432
    5.54643 	   2.72126 	   4.10020
    5.54641 	   2.70691 	   4.08636
    5.54638 	   2.69266 	   4.07241
    5.54636 	   2.67887 	   4.05801
    5.54633 	   2.66556 	   4.04317
    5.54631 	   2.65267 	   4.02796
    5.54628 	   2.64024 	   4.01237
    5.54625 	   2.62824 	   3.99644
    5.54623 	   2.61639 	   3.98041
    5.54620 	   2.60453 	   3.96438
    5.54617 	   2.59270 	   3.94833
    5.54615 	   2.58088 	   3.93228
    5.54612 	   2.56933 	   3.91603
    5.54609 	   2.55862 	   3.89921
    5.54606 	   2.54953 	   3.88148
    5.54603 	   2.54242 	   3.86286
    5.54600 	   2.53350 	   3.84510
    5.54597 	   2.51964 	   3.83092
    5.19524 	   2.47283 	   3.99132
    5.19521 	   2.47148 	   3.97171
    5.19518 	   2.46872 	   3.95224
    5.19515 	   2.46591 	   3.93278
    5.19511 	   2.46428 	   3.91319
    5.19508 	   2.46513 	   3.89355
    5.19505 	   2.46822 	   3.87415
    5.19501 	   2.47425 	   3.85546
    5.19499 	   2.48415 	   3.83853
    5.19543 	   2.41657 	   4.10198
    5.19541 	   2.42926 	   4.08900
    5.19539 	   2.44143 	   4.07554
    5.19536 	   2.45241 	   4.06111
    5.19534 	   2.46170 	   4.04553
    5.19531 	   2.46849 	   4.02872
    5.19562 	   2.29146 	   4.21358
    5.19560 	   2.30622 	   4.20209
    5.19558 	   2.32071 	   4.19027
    5.19556 	   2.33498 	   4.17818
    5.19554 	   2.34909 	   4.16589
    5.19552 	   2.36306 	   4.15346
    5.19550 	   2.37683 	   4.14079
    5.19548 	   2.39037 	   4.12789
    5.21408 	   2.26803 	   4.22420
    5.23270 	   2.26000 	   4.22389
    5.25149 	   2.25238 	   4.22380
    5.27045 	   2.24516 	   4.22390
    5.28956 	   2.23837 	   4.22411
    5.30881 	   2.23199 	   4.22434
    5.32819 	   2.22603 	   4.22452
    5.34769 	   2.22046 	   4.22459
    5.36730 	   2.21527 	   4.22456
    5.38699 	   2.21042 	   4.22445
    5.40676 	   2.20588 	   4.22428
    5.42659 	   2.20163 	   4.22409
    5.44648 	   2.19765 	   4.22393
    5.46641 	   2.19394 	   4.22382
    5.48640 	   2.19050 	   4.22375
    5.50644 	   2.18734 	   4.22374
    5.52652 	   2.18449 	   4.22375
    5.54661 	   2.19013 	   4.20561
    5.54658 	   2.19998 	   4.18828
    5.54655 	   2.21141 	   4.17195
    5.54653 	   2.22380 	   4.15633
    5.54650 	   2.23690 	   4.14131
    5.54648 	   2.25049 	   4.12671
    5.54645 	   2.26443 	   4.11245
    5.54643 	   2.27862 	   4.09845
    5.54640 	   2.29308 	   4.08472
    5.54638 	   2.30743 	   4.07089
    5.54636 	   2.32134 	   4.05660
    5.54633 	   2.33476 	   4.04186
    5.54631 	   2.34778 	   4.02675
    5.54628 	   2.36033 	   4.01126
    5.54625 	   2.37245 	   3.99543
    5.54623 	   2.38443 	   3.97949
    5.54620 	   2.39642 	   3.96356
    5.54617 	   2.40837 	   3.94760
    5.54614 	   2.42033 	   3.93164
    5.54612 	   2.43200 	   3.91548
    5.54609 	   2.44285 	   3.89876
    5.54606 	   2.45207 	   3.88109
    5.54603 	   2.45933 	   3.86253
    5.54600 	   2.46839 	   3.84484
    5.54597 	   2.48237 	   3.83077
    5.19564 	   2.30269 	   4.22487
    5.19564 	   2.32892 	   4.22497
    5.19564 	   2.35516 	   4.22507
    5.19564 	   2.38139 	   4.22518
    5.19564 	   2.40763 	   4.22528
    5.19564 	   2.43386 	   4.22538
    5.19564 	   2.46009 	   4.22549
    5.19564 	   2.48633 	   4.22559
    5.19564 	   2.51256 	   4.22570
    5.19564 	   2.53879 	   4.22580
    5.19564 	   2.56503 	   4.22590
    5.19564 	   2.59126 	   4.22601
    5.19564 	   2.61749 	   4.22611
    5.19564 	   2.64373 	   4.22621
    5.19564 	   2.66996 	   4.22632
    5.19564 	   2.69619 	   4.22642
    5.54664 	   2.24546 	   4.22404
    5.54664 	   2.30896 	   4.22429
    5.54664 	   2.37245 	   4.22455
    5.54664 	   2.43595 	   4.22480
    5.54664 	   2.49944 	   4.22505
    5.54664 	   2.56294 	   4.22530
    5.54664 	   2.62643 	   4.22555
    5.54664 	   2.68993 	   4.22580
    5.54664 	   2.75342 	   4.22605
    6.24860 	   2.82620 	   4.20180
    6.24856 	   2.82629 	   4.17846
    6.24852 	   2.82638 	   4.15511
    6.24848 	   2.82648 	   4.13177
    6.24845 	   2.82657 	   4.10842
    6.24841 	   2.82637 	   4.08508
    6.24837 	   2.82474 	   4.06180
    6.24833 	   2.82083 	   4.03880
    6.24829 	   2.81398 	   4.01650
    6.24825 	   2.80377 	   3.99553
    6.24822 	   2.79110 	   3.97593
    6.24819 	   2.77690 	   3.95741
    6.24816 	   2.76165 	   3.93973
    6.24813 	   2.74584 	   3.92256
    6.24810 	   2.72977 	   3.90562
    6.24807 	   2.71348 	   3.88890
    6.24804 	   2.69692 	   3.87245
    6.24802 	   2.67974 	   3.85665
    6.24799 	   2.66106 	   3.84267
    6.24798 	   2.64020 	   3.83227
    6.24797 	   2.61764 	   3.82644
    6.24796 	   2.59440 	   3.82437
    6.24796 	   2.57106 	   3.82414
    6.24796 	   2.54771 	   3.82405
    6.24796 	   2.52437 	   3.82395
    5.58546 	   2.82085 	   4.22642
    5.62439 	   2.82358 	   4.22647
    5.66337 	   2.82526 	   4.22644
    5.70238 	   2.82607 	   4.22633
    5.74140 	   2.82627 	   4.22615
    5.78042 	   2.82611 	   4.22594
    5.81943 	   2.82580 	   4.22575
[...]
CELL_DATA 	      9403
SCALARS 	cell_scalars 	FLOAT 	         1
LOOKUP_TABLE 	DEFAULT
    -0.43036E+02
    -0.36506E+02
    -0.42727E+02
    -0.44559E+02
    -0.38089E+02
    -0.43043E+02
    -0.43810E+02
    -0.35291E+02
    -0.38395E+02
    -0.46996E+02
    -0.43681E+02
    -0.33044E+02
    -0.35992E+02
    -0.45106E+02
    -0.47301E+02
    -0.45292E+02
    -0.38707E+02
    -0.37540E+02
    -0.58786E+02
    -0.57709E+02
    -0.58144E+02
    -0.59294E+02
    -0.57025E+02
    -0.57486E+02
    -0.57151E+02
    -0.55872E+02
    -0.56097E+02
    -0.57087E+02
    -0.56342E+02
    -0.52977E+02
    -0.51577E+02
    -0.54240E+02
    -0.51781E+02
    -0.48940E+02
    -0.52033E+02
    -0.51692E+02
    -0.62311E+02
    -0.60864E+02
    -0.61960E+02
    -0.62547E+02
    -0.60944E+02
    -0.61373E+02
    -0.60894E+02
    -0.60839E+02
    -0.62758E+02
    -0.63804E+02
    -0.60249E+02
    -0.58525E+02
    -0.60788E+02
    -0.60963E+02
    -0.55771E+02
    -0.52426E+02
    -0.58461E+02
    -0.58144E+02
    -0.67130E+02
    -0.65391E+02
    -0.65880E+02
    -0.64877E+02
    -0.64046E+02
    -0.63864E+02
    -0.62661E+02
    -0.63567E+02
    -0.64453E+02
    -0.63736E+02
    -0.61645E+02
    -0.61568E+02
    -0.63789E+02
    -0.61734E+02
    -0.60231E+02
    -0.60680E+02
    -0.61110E+02
    -0.57306E+02
    -0.66941E+02
    -0.66298E+02
    -0.67365E+02
    -0.67597E+02
    -0.67162E+02
    -0.66783E+02
    -0.66146E+02
    -0.66735E+02
    -0.66662E+02
    -0.65593E+02
    -0.63549E+02
    -0.62237E+02
    -0.64580E+02
    -0.62165E+02
    -0.60724E+02
    -0.63949E+02
    -0.61215E+02
    -0.58556E+02
    -0.65878E+02
    -0.65425E+02
    -0.66237E+02
    -0.66699E+02
    -0.66763E+02
    -0.67242E+02
    -0.67265E+02
    -0.67308E+02
    -0.67949E+02
    -0.66344E+02
    -0.64732E+02
    -0.64061E+02
    -0.67027E+02
    -0.65270E+02
    -0.63390E+02
    -0.64927E+02
    -0.63279E+02
    -0.62734E+02
    -0.66398E+02
    -0.66646E+02
    -0.67908E+02
    -0.67278E+02
    -0.66923E+02
    -0.67459E+02
    -0.67341E+02
    -0.67126E+02
    -0.68094E+02
    -0.67031E+02
    -0.66260E+02
    -0.67054E+02
    -0.67495E+02
    -0.67083E+02
    -0.67443E+02
    -0.66996E+02
    -0.65148E+02
    -0.64167E+02
    -0.64522E+02
    -0.66391E+02
    -0.67902E+02
    -0.67631E+02
    -0.68149E+02
    -0.68457E+02
    -0.69518E+02
    -0.69066E+02
    -0.69149E+02
    -0.68296E+02
    -0.67973E+02
    -0.69641E+02
    -0.68328E+02
    -0.67498E+02
    -0.68117E+02
    -0.67805E+02
    -0.65689E+02
    -0.65733E+02
    -0.64414E+02
    -0.65803E+02
    -0.66176E+02
    -0.67019E+02
    -0.67507E+02
    -0.69194E+02
    -0.70315E+02
    -0.68490E+02
    -0.69764E+02
    -0.70912E+02
    -0.69936E+02
    -0.71600E+02
    -0.70963E+02
    -0.68742E+02
    -0.68565E+02
    -0.66607E+02
    -0.65181E+02
    -0.65375E+02
    -0.64846E+02
    -0.65921E+02
    -0.67148E+02
    -0.69111E+02
    -0.68709E+02
    -0.69113E+02
    -0.69999E+02
    -0.68121E+02
    -0.69862E+02
    -0.71394E+02
    -0.69493E+02
    -0.71153E+02
    -0.72838E+02
    -0.69670E+02
    -0.67919E+02
    -0.66937E+02
    -0.65102E+02
    -0.63763E+02
    -0.63354E+02
    -0.65682E+02
    -0.66979E+02
    -0.69417E+02
    -0.70411E+02
    -0.69782E+02
    -0.69941E+02
    -0.69952E+02
    -0.70313E+02
    -0.69785E+02
    -0.68210E+02
    -0.67825E+02
    -0.68056E+02
    -0.66717E+02
    -0.63358E+02
    -0.62665E+02
    -0.62955E+02
    -0.62482E+02
    -0.63416E+02
    -0.63604E+02
    -0.64251E+02
    -0.65529E+02
    -0.63938E+02
    -0.64183E+02
    -0.64659E+02
    -0.64893E+02
    -0.64884E+02
    -0.63880E+02
    -0.64639E+02
    -0.63895E+02
    -0.63349E+02
    -0.64677E+02
    -0.62627E+02
    -0.60986E+02
    -0.60102E+02
    -0.60217E+02
    -0.60383E+02
    -0.59461E+02
    -0.62076E+02
    -0.62029E+02
    -0.60152E+02
    -0.61239E+02
    -0.60412E+02
    -0.60582E+02
    -0.60541E+02
    -0.60047E+02
    -0.60564E+02
    -0.58356E+02
    -0.58583E+02
    -0.59148E+02
    -0.57566E+02
    -0.59101E+02
    -0.58592E+02
    -0.57582E+02
    -0.52436E+02
    -0.55616E+02
    -0.56882E+02
    -0.54997E+02
    -0.57275E+02
    -0.56844E+02
    -0.54564E+02
    -0.56950E+02
    -0.56460E+02
    -0.54522E+02
    -0.55232E+02
    -0.54618E+02
    -0.53938E+02
    -0.53492E+02
    -0.55314E+02
    -0.56977E+02
    -0.54386E+02
    -0.54615E+02
    -0.53647E+02
    -0.52068E+02
    -0.49249E+02
    -0.51991E+02
    -0.52305E+02
    -0.50256E+02
    -0.51884E+02
    -0.52312E+02
    -0.50459E+02
    -0.51140E+02
    -0.52444E+02
    -0.50939E+02
    -0.49838E+02
    -0.52068E+02
    -0.52399E+02
    -0.49805E+02
    -0.51202E+02
    -0.52683E+02
    -0.52046E+02
    -0.49973E+02
    -0.46184E+02
    -0.47010E+02
    -0.49909E+02
    -0.48513E+02
    -0.47464E+02
    -0.51259E+02
    -0.50906E+02
    -0.46947E+02
    -0.47317E+02
    -0.49299E+02
    -0.47337E+02
    -0.44858E+02
    -0.44055E+02
    -0.45825E+02
    -0.43343E+02
    -0.35339E+02
    -0.48012E+02
    -0.46228E+02
    -0.43542E+02
    -0.42033E+02
    -0.46275E+02
    -0.46524E+02
    -0.42787E+02
    -0.41981E+02
    -0.45009E+02
    -0.44942E+02
    -0.39539E+02
    -0.35305E+02
    -0.35127E+02
    -0.34843E+02
    -0.30165E+02
    -0.21096E+02
    -0.12117E+02
    -0.48832E+01
    -0.42410E+02
    -0.37652E+02
    -0.34364E+02
    -0.37782E+02
    -0.42542E+02
    -0.42325E+02
    -0.33216E+02
    -0.25196E+02
    -0.20991E+02
    -0.21552E+02
    -0.20207E+02
    -0.89324E+01
     0.58428E+01
     0.18553E+02
     0.29206E+02
     0.46334E+02
     0.65637E+02
     0.86825E+02
    -0.19939E+02
    -0.12631E+02
    -0.96384E+01
    -0.14890E+02
    -0.16422E+02
    -0.13796E+02
     0.14303E+01
     0.21861E+02
     0.37453E+02
     0.55458E+02
     0.65348E+02
     0.70659E+02
     0.93484E+02
     0.12026E+03
     0.14814E+03
     0.17650E+03
     0.19738E+03
     0.22395E+03
     0.46399E+02
     0.55705E+02
     0.62910E+02
     0.71907E+02
     0.81788E+02
     0.89260E+02
     0.10260E+03
     0.12976E+03
     0.15659E+03
     0.18010E+03
     0.20313E+03
     0.23053E+03
     0.25739E+03
     0.27344E+03
     0.29461E+03
     0.32753E+03
     0.35602E+03
     0.38391E+03
     0.17873E+03
     0.19287E+03
     0.21919E+03
     0.25194E+03
     0.26550E+03
     0.26845E+03
     0.27892E+03
     0.29640E+03
     0.31799E+03
     0.34284E+03
     0.36902E+03
     0.39593E+03
     0.42247E+03
     0.44841E+03
     0.47804E+03
     0.50808E+03
     0.53091E+03
     0.54984E+03
     0.36796E+03
     0.38884E+03
     0.42219E+03
     0.46418E+03
     0.48505E+03
     0.48799E+03
     0.49278E+03
     0.50327E+03
     0.51976E+03
     0.54127E+03
     0.56282E+03
     0.58312E+03
     0.60453E+03
     0.62740E+03
     0.65102E+03
     0.67400E+03
     0.69540E+03
     0.71679E+03
     0.57617E+03
     0.60159E+03
     0.62969E+03
     0.66299E+03
     0.68633E+03
     0.69775E+03
     0.70728E+03
     0.71969E+03
     0.73850E+03
     0.76127E+03
     0.78234E+03
     0.80037E+03
     0.81607E+03
     0.83103E+03
     0.84676E+03
     0.86433E+03
     0.88328E+03
     0.90142E+03
     0.78464E+03
     0.81069E+03
     0.83617E+03
     0.85927E+03
     0.87994E+03
     0.89628E+03
     0.90997E+03
     0.92355E+03
     0.94031E+03
     0.95939E+03
     0.97711E+03
     0.99313E+03
     0.10095E+04
     0.10270E+04
     0.10445E+04
     0.10617E+04
     0.10785E+04
     0.10953E+04
     0.99575E+03
     0.10213E+04
     0.10420E+04
     0.10563E+04
     0.10749E+04
     0.10919E+04
     0.11052E+04
     0.11177E+04
     0.11321E+04
     0.11482E+04
     0.11627E+04
     0.11760E+04
     0.11909E+04
     0.12077E+04
     0.12241E+04
     0.12399E+04
     0.12551E+04
     0.12701E+04
     0.11721E+04
     0.11920E+04
     0.12038E+04
     0.12102E+04
     0.12218E+04
     0.12347E+04
     0.12459E+04
     0.12568E+04
     0.12692E+04
     0.12827E+04
     0.12941E+04
     0.13033E+04
     0.13141E+04
     0.13268E+04
     0.13394E+04
     0.13530E+04
     0.13668E+04
     0.13781E+04
    -0.44717E+02
    -0.41374E+02
    -0.46494E+02
    -0.49609E+02
    -0.50081E+02
    -0.47360E+02
    -0.44583E+02
    -0.46854E+02
    -0.51308E+02
    -0.48292E+02
    -0.45214E+02
    -0.47135E+02
    -0.49040E+02
    -0.47399E+02
    -0.50133E+02
    -0.48992E+02
    -0.44154E+02
    -0.50349E+02
    -0.52085E+02
    -0.51929E+02
    -0.51726E+02
    -0.53174E+02
    -0.54123E+02
    -0.53625E+02
    -0.53609E+02
    -0.55660E+02
    -0.58388E+02
    -0.56595E+02
    -0.55179E+02
    -0.57728E+02
    -0.58947E+02
    -0.57161E+02
    -0.58252E+02
    -0.58840E+02
    -0.60500E+02
    -0.63549E+02
    -0.55607E+02
    -0.58168E+02
    -0.57076E+02
    -0.57524E+02
    -0.59968E+02
    -0.61628E+02
    -0.59377E+02
    -0.60705E+02
    -0.64301E+02
    -0.62655E+02
    -0.61823E+02
    -0.64106E+02
    -0.64561E+02
    -0.61928E+02
    -0.62970E+02
    -0.63040E+02
    -0.61785E+02
    -0.62355E+02
    -0.56332E+02
    -0.60433E+02
    -0.63345E+02
    -0.61166E+02
    -0.60597E+02
    -0.63107E+02
    -0.63525E+02
    -0.62721E+02
    -0.63417E+02
    -0.64797E+02
    -0.64387E+02
    -0.64506E+02
    -0.66182E+02
    -0.64959E+02
    -0.64578E+02
    -0.65446E+02
    -0.64338E+02
    -0.66512E+02
    -0.59817E+02
    -0.60170E+02
    -0.63315E+02
    -0.61605E+02
    -0.61523E+02
    -0.63440E+02
    -0.62361E+02
    -0.62646E+02
    -0.64555E+02
    -0.66483E+02
    -0.66745E+02
    -0.67065E+02
    -0.68519E+02
    -0.67914E+02
    -0.68282E+02
    -0.68146E+02
    -0.67350E+02
    -0.68463E+02
    -0.61025E+02
    -0.60313E+02
    -0.63026E+02
    -0.63083E+02
    -0.63901E+02
    -0.65501E+02
    -0.64276E+02
    -0.65255E+02
    -0.67219E+02
    -0.68825E+02
    -0.67780E+02
    -0.67470E+02
    -0.68612E+02
    -0.67974E+02
    -0.68702E+02
    -0.68623E+02
    -0.66067E+02
    -0.66729E+02
    -0.62907E+02
    -0.63646E+02
    -0.65544E+02
    -0.66360E+02
    -0.66272E+02
    -0.67119E+02
    -0.68327E+02
    -0.67958E+02
    -0.67444E+02
    -0.69265E+02
    -0.67978E+02
    -0.66962E+02
    -0.67895E+02
    -0.67528E+02
    -0.67610E+02
    -0.68016E+02
    -0.66876E+02
    -0.67792E+02
    -0.65877E+02
    -0.65376E+02
    -0.67060E+02
    -0.67980E+02
    -0.67822E+02
    -0.68179E+02
    -0.69660E+02
    -0.68356E+02
    -0.67884E+02
    -0.69638E+02
    -0.69398E+02
    -0.68912E+02
    -0.68374E+02
    -0.68710E+02
    -0.68034E+02
    -0.68052E+02
    -0.66634E+02
    -0.65737E+02
    -0.65189E+02
    -0.65120E+02
    -0.66346E+02
    -0.68518E+02
    -0.68522E+02
    -0.69818E+02
    -0.71337E+02
    -0.70220E+02
    -0.70940E+02
    -0.70958E+02
    -0.69615E+02
    -0.70154E+02
    -0.69055E+02
    -0.68639E+02
    -0.67287E+02
    -0.66534E+02
    -0.66263E+02
    -0.65386E+02
    -0.63152E+02
    -0.64863E+02
    -0.66790E+02
    -0.68075E+02
    -0.69241E+02
    -0.72219E+02
    -0.72145E+02
    -0.70427E+02
    -0.72369E+02
    -0.70659E+02
    -0.68362E+02
    -0.69620E+02
    -0.69188E+02
    -0.69170E+02
    -0.68804E+02
    -0.67355E+02
    -0.66659E+02
    -0.66353E+02
    -0.62257E+02
    -0.63453E+02
    -0.63635E+02
    -0.62920E+02
    -0.64981E+02
    -0.68332E+02
    -0.68134E+02
    -0.68036E+02
    -0.69818E+02
    -0.70231E+02
    -0.69639E+02
    -0.69715E+02
    -0.70133E+02
    -0.70767E+02
    -0.69440E+02
    -0.67097E+02
    -0.66160E+02
    -0.65201E+02
    -0.60976E+02
    -0.60824E+02
    -0.62821E+02
    -0.61595E+02
    -0.62280E+02
    -0.63833E+02
    -0.64277E+02
    -0.64667E+02
    -0.64413E+02
    -0.65469E+02
    -0.64258E+02
    -0.63867E+02
    -0.65542E+02
    -0.66388E+02
    -0.66277E+02
    -0.64470E+02
    -0.64086E+02
    -0.64829E+02
    -0.57752E+02
    -0.58528E+02
    -0.60396E+02
    -0.58597E+02
    -0.59420E+02
    -0.59077E+02
    -0.58787E+02
    -0.60874E+02
    -0.61271E+02
    -0.62009E+02
    -0.60708E+02
    -0.60194E+02
    -0.62620E+02
    -0.61997E+02
    -0.62190E+02
    -0.62458E+02
    -0.59905E+02
    -0.60560E+02
    -0.54602E+02
    -0.54916E+02
    -0.57397E+02
    -0.55765E+02
    -0.53872E+02
    -0.54634E+02
    -0.55651E+02
    -0.55730E+02
    -0.55183E+02
    -0.57322E+02
    -0.57268E+02
    -0.54673E+02
    -0.57294E+02
    -0.57514E+02
    -0.54425E+02
    -0.56664E+02
    -0.55915E+02
    -0.52673E+02
    -0.52461E+02
    -0.51626E+02
    -0.50229E+02
    -0.52603E+02
    -0.51945E+02
    -0.50141E+02
    -0.51761E+02
    -0.53057E+02
    -0.51373E+02
    -0.50760E+02
    -0.52580E+02
    -0.52097E+02
    -0.50700E+02
    -0.52546E+02
    -0.51499E+02
    -0.49137E+02
    -0.52815E+02
    -0.54071E+02
    -0.35106E+02
    -0.44186E+02
    -0.46036E+02
    -0.43682E+02
    -0.45221E+02
    -0.48424E+02
    -0.49577E+02
    -0.47526E+02
    -0.47410E+02
    -0.50941E+02
    -0.50894E+02
    -0.47665E+02
    -0.48963E+02
    -0.49195E+02
    -0.46354E+02
    -0.47182E+02
    -0.50491E+02
    -0.52419E+02
    -0.19692E+01
    -0.10301E+02
    -0.20448E+02
    -0.30457E+02
    -0.34326E+02
    -0.34765E+02
    -0.35956E+02
    -0.40441E+02
    -0.44946E+02
    -0.43928E+02
    -0.41564E+02
    -0.43200E+02
    -0.46952E+02
    -0.45770E+02
    -0.41846E+02
    -0.44139E+02
    -0.46584E+02
    -0.48085E+02
     0.92130E+02
     0.70931E+02
     0.50628E+02
     0.33616E+02
     0.21498E+02
     0.66468E+01
    -0.88729E+01
    -0.17976E+02
    -0.19185E+02
    -0.19785E+02
    -0.25440E+02
    -0.34163E+02
    -0.41936E+02
    -0.40023E+02
    -0.35713E+02
    -0.34384E+02
    -0.38665E+02
    -0.43958E+02
     0.23164E+03
     0.20627E+03
     0.18241E+03
     0.15180E+03
     0.12413E+03
     0.96046E+02
     0.77365E+02
     0.69976E+02
     0.57218E+02
     0.37581E+02
     0.19678E+02
    -0.20199E+01
    -0.11293E+02
    -0.10383E+02
    -0.94296E+01
    -0.83233E+01
    -0.13061E+02
    -0.23528E+02
     0.39090E+03
     0.36443E+03
     0.33423E+03
     0.30038E+03
     0.28308E+03
     0.26266E+03
     0.23194E+03
     0.20573E+03
     0.18120E+03
     0.15275E+03
     0.12334E+03
     0.10282E+03
     0.96040E+02
     0.88636E+02
     0.75093E+02
     0.66323E+02
     0.60010E+02
     0.46105E+02
     0.55825E+03
     0.53967E+03
     0.51425E+03
     0.48156E+03
     0.45335E+03
     0.42552E+03
     0.39614E+03
     0.36886E+03
     0.34331E+03
     0.31978E+03
     0.29992E+03
     0.28711E+03
     0.28295E+03
     0.27648E+03
     0.24787E+03
     0.21476E+03
     0.20179E+03
     0.18364E+03
     0.72145E+03
     0.70304E+03
     0.68373E+03
     0.65984E+03
     0.63531E+03
     0.61102E+03
     0.58703E+03
     0.56392E+03
     0.54349E+03
     0.52772E+03
     0.51672E+03
     0.51073E+03
     0.50043E+03
     0.47993E+03
     0.45069E+03
     0.41746E+03
     0.39681E+03
     0.37381E+03
     0.90485E+03
     0.89235E+03
     0.88079E+03
     0.86609E+03
     0.84655E+03
     0.82214E+03
     0.79883E+03
     0.77741E+03
     0.75637E+03
     0.73841E+03
     0.72473E+03
     0.71442E+03
     0.69975E+03
     0.67685E+03
     0.65285E+03
     0.62928E+03
     0.60676E+03
     0.58188E+03
     0.11011E+04
     0.10856E+04
     0.10697E+04
     0.10534E+04
     0.10344E+04
     0.10122E+04
     0.99155E+03
     0.97352E+03
     0.95537E+03
     0.93828E+03
     0.92387E+03
     0.91083E+03
     0.89632E+03
     0.87781E+03
     0.85597E+03
     0.83554E+03
     0.81674E+03
     0.79484E+03
     0.12746E+04
     0.12608E+04
     0.12468E+04
     0.12319E+04
     0.12137E+04
     0.11922E+04
     0.11746E+04
     0.11608E+04
     0.11456E+04
     0.11301E+04
     0.11166E+04
     0.11047E+04
     0.10921E+04
     0.10776E+04
     0.10606E+04
     0.10444E+04
     0.10272E+04
     0.10055E+04
     0.13789E+04
     0.13680E+04
     0.13548E+04
     0.13417E+04
     0.13287E+04
     0.13141E+04
     0.13021E+04
     0.12926E+04
     0.12809E+04
     0.12675E+04
     0.12553E+04
     0.12448E+04
     0.12344E+04
     0.12237E+04
     0.12142E+04
     0.12065E+04
     0.11942E+04
     0.11743E+04
    -0.31374E+02
    -0.31784E+02
    -0.30232E+02
    -0.20826E+02
    -0.24912E+02
    -0.23660E+02
    -0.44457E+02
    -0.34474E+02
    -0.37378E+02
    -0.29003E+02
    -0.33427E+02
    -0.43044E+02
    -0.43272E+02
    -0.42132E+02
    -0.36460E+02
    -0.21854E+02
    -0.28924E+02
    -0.19925E+02
    -0.23695E+02
    -0.35237E+02
    -0.34646E+02
    -0.33557E+02
    -0.36022E+02
    -0.35504E+02
    -0.24657E+02
    -0.22247E+02
    -0.34379E+02
    -0.40489E+02
    -0.39457E+02
    -0.38090E+02
    -0.20516E+02
    -0.34946E+02
    -0.35352E+02
    -0.35671E+02
    -0.27782E+02
    -0.35198E+02
    -0.32317E+02
    -0.37970E+02
    -0.29896E+02
    -0.31715E+02
    -0.21454E+02
    -0.18485E+02
    -0.14577E+02
    -0.15214E+02
    -0.22898E+02
    -0.33630E+02
    -0.33958E+02
    -0.37607E+02
    -0.24844E+02
    -0.22714E+02
    -0.11487E+02
    -0.19710E+02
    -0.33650E+02
    -0.38692E+02
    -0.39530E+02
    -0.43894E+02
    -0.40667E+02
    -0.43416E+02
    -0.37383E+02
    -0.36211E+02
    -0.30487E+02
    -0.30005E+02
    -0.32058E+02
    -0.36497E+02
    -0.40102E+02
    -0.43796E+02
    -0.39144E+02
    -0.37059E+02
    -0.28405E+02
    -0.33792E+02
    -0.37500E+02
    -0.35432E+02
    -0.32338E+02
    -0.30489E+02
    -0.28706E+02
    -0.27113E+02
    -0.26771E+02
    -0.26541E+02
    -0.26577E+02
    -0.25831E+02
    -0.25543E+02
    -0.25223E+02
    -0.25225E+02
    -0.24755E+02
    -0.24492E+02
    -0.24228E+02
    -0.24422E+02
    -0.24365E+02
    -0.24326E+02
    -0.23801E+02
    -0.24105E+02
    -0.23687E+02
    -0.24176E+02
    -0.23925E+02
    -0.24197E+02
    -0.24148E+02
    -0.25304E+02
    -0.26345E+02
    -0.27575E+02
    -0.29710E+02
    -0.35339E+02
    -0.25171E+02
    -0.29720E+02
    -0.36880E+02
    -0.38652E+02
    -0.38480E+02
    -0.37378E+02
    -0.39902E+02
    -0.37702E+02
    -0.36439E+02
    -0.37672E+02
    -0.35550E+02
    -0.35333E+02
    -0.38370E+02
    -0.37759E+02
    -0.30974E+02
    -0.30339E+02
    -0.31289E+02
    -0.30957E+02
    -0.31516E+02
    -0.31055E+02
    -0.27318E+02
    -0.29893E+02
    -0.23977E+02
    -0.26634E+02
    -0.28023E+02
    -0.26913E+02
    -0.30131E+02
    -0.32497E+02
    -0.34555E+02
    -0.31632E+02
    -0.35017E+02
    -0.32837E+02
    -0.34454E+02
    -0.33253E+02
    -0.33615E+02
    -0.33375E+02
    -0.35361E+02
    -0.33927E+02
    -0.36981E+02
    -0.35110E+02
    -0.35242E+02
    -0.34845E+02
    -0.31426E+02
    -0.33300E+02
    -0.24662E+02
    -0.26061E+02
    -0.26651E+02
    -0.25218E+02
    -0.26676E+02
    -0.26049E+02
    -0.25369E+02
    -0.26380E+02
    -0.24670E+02
    -0.25831E+02
    -0.26737E+02
    -0.26069E+02
    -0.27183E+02
    -0.26693E+02
    -0.23581E+02
    -0.25754E+02
    -0.19698E+02
    -0.24005E+02
    -0.27185E+02
    -0.28214E+02
    -0.25630E+02
    -0.26117E+02
    -0.24983E+02
    -0.25516E+02
    -0.26040E+02
    -0.25700E+02
    -0.25653E+02
    -0.26243E+02
    -0.25608E+02
    -0.25821E+02
    -0.25334E+02
    -0.25467E+02
    -0.25261E+02
    -0.25233E+02
    -0.25675E+02
    -0.25330E+02
    -0.26140E+02
    -0.26072E+02
    -0.27067E+02
    -0.26843E+02
    -0.27529E+02
    -0.27476E+02
    -0.28405E+02
    -0.27972E+02
    -0.30700E+02
    -0.28849E+02
    -0.32593E+02
    -0.25579E+02
    -0.25065E+02
    -0.35928E+02
    -0.35005E+02
    -0.23435E+02
    -0.22813E+02
    -0.28047E+02
    -0.26615E+02
    -0.33764E+02
    -0.31752E+02
    -0.29487E+02
    -0.27917E+02
    -0.29903E+02
    -0.24941E+02
    -0.23638E+02
    -0.25148E+02
    -0.33683E+02
    -0.32166E+02
    -0.33226E+02
    -0.31779E+02
    -0.33857E+02
    -0.31728E+02
    -0.34547E+02
    -0.32611E+02
    -0.26939E+02
    -0.28098E+02
    -0.28592E+02
    -0.27361E+02
    -0.27308E+02
    -0.27005E+02
    -0.26975E+02
    -0.25997E+02
    -0.26081E+02
    -0.25822E+02
    -0.24972E+02
    -0.24589E+02
    -0.24310E+02
    -0.23922E+02
    -0.24499E+02
    -0.23571E+02
    -0.24775E+02
    -0.30314E+02
    -0.29188E+02