# vtk DataFile Version 3.14.1
BMesh by KP LIAO
ASCII
DATASET UNSTRUCTURED_GRID
POINTS 	      8150 	FLOAT
    5.19470 	   2.72226 	   4.20741
    5.19527 	   2.59598 	   4.09631
    5.19581 	   2.52861 	   3.99184
    5.19675 	   2.50131 	   3.81038
    5.54777 	   2.50133 	   3.80809
    5.54569 	   2.81675 	   4.20971
    5.19581 	   2.47214 	   3.99155
    5.19528 	   2.40371 	   4.09532
    5.19471 	   2.27629 	   4.20512
    5.54571 	   2.18180 	   4.20645
    6.24768 	   2.82594 	   4.21338
    6.24976 	   2.50133 	   3.81172
    6.24770 	   2.17262 	   4.21003
    7.88773 	   2.50133 	   3.82019
    7.88567 	   2.17262 	   4.21850
    7.88566 	   2.82594 	   4.22185
    9.28964 	   2.82594 	   4.22911
    9.29172 	   2.50133 	   3.82745
    9.28966 	   2.17262 	   4.22576
    9.65397 	   2.50093 	   3.90732
    9.65399 	   2.49427 	   3.90467
    9.58371 	   2.49417 	   3.92537
    9.60126 	   2.50058 	   3.97571
    9.58345 	   2.48884 	   3.97556
    9.55714 	   2.48418 	   3.96871
    9.58410 	   2.50122 	   3.84976
    9.55759 	   2.50126 	   3.84215
    9.52502 	   2.47827 	   3.96291
    9.52567 	   2.50129 	   3.83582
    9.58371 	   2.50750 	   3.92544
    9.65399 	   2.50761 	   3.90474
    9.58345 	   2.51231 	   3.97568
    9.55714 	   2.51704 	   3.96887
    9.52502 	   2.52301 	   3.96314
    9.83230 	   2.82594 	   4.23192
    9.64063 	   2.82594 	   4.23092
    9.83333 	   2.50029 	   4.03291
    9.64185 	   2.50047 	   3.99567
    9.52364 	   2.82594 	   4.23032
    9.64065 	   2.17262 	   4.22758
    9.83232 	   2.17262 	   4.22857
    9.52365 	   2.17262 	   4.22697
    9.42772 	   2.17262 	   4.22648
    9.42770 	   2.82594 	   4.22982
    9.83231 	   2.49928 	   4.23024
    9.65410 	   2.50105 	   3.88332
    9.42978 	   2.50133 	   3.82816
    5.13730 	   2.51732 	   3.99272
    5.13761 	   2.52729 	   3.93304
    5.13821 	   2.50127 	   3.81775
    5.13762 	   2.47406 	   3.93276
    5.13730 	   2.48342 	   3.99255
    5.07908 	   2.47788 	   3.93888
    5.07888 	   2.49127 	   3.97895
    5.07881 	   2.50037 	   3.99233
    5.07888 	   2.50961 	   3.97905
    5.07908 	   2.52340 	   3.93912
    5.06845 	   2.50044 	   3.97894
    5.02058 	   2.52124 	   3.93880
    5.02038 	   2.50044 	   3.97870
    5.02058 	   2.48004 	   3.93859
    5.07963 	   2.50119 	   3.83240
    5.02100 	   2.50106 	   3.85793
    4.94318 	   2.50064 	   3.93830
    5.13619 	   2.69165 	   4.20695
    5.13620 	   2.30691 	   4.20498
    4.93712 	   2.49928 	   4.20493
    5.13675 	   2.57066 	   4.09966
    5.02471 	   2.49982 	   4.09872
    5.13675 	   2.42898 	   4.09894
    5.21314 	   2.73070 	   4.20705
    5.23176 	   2.73873 	   4.20694
    5.25055 	   2.74635 	   4.20705
    5.26951 	   2.75356 	   4.20734
    5.28861 	   2.76035 	   4.20774
    5.30786 	   2.76673 	   4.20817
    5.32724 	   2.77269 	   4.20853
    5.34674 	   2.77825 	   4.20879
    5.36635 	   2.78345 	   4.20894
    5.38604 	   2.78830 	   4.20900
    5.40581 	   2.79283 	   4.20901
    5.42564 	   2.79708 	   4.20900
    5.44553 	   2.80107 	   4.20902
    5.46547 	   2.80478 	   4.20907
    5.48545 	   2.80822 	   4.20918
    5.50549 	   2.81138 	   4.20932
    5.52557 	   2.81423 	   4.20951
    5.19475 	   2.70737 	   4.19609
    5.19481 	   2.69271 	   4.18447
    5.19488 	   2.67832 	   4.17252
    5.19494 	   2.66416 	   4.16030
    5.19500 	   2.65017 	   4.14788
    5.19507 	   2.63631 	   4.13532
    5.19513 	   2.62266 	   4.12253
    5.19520 	   2.60923 	   4.10951
    5.19534 	   2.58327 	   4.08336
    5.19540 	   2.57070 	   4.07026
    5.19548 	   2.55865 	   4.05670
    5.19555 	   2.54780 	   4.04216
    5.19563 	   2.53865 	   4.02650
    5.19572 	   2.53202 	   4.00964
    5.19591 	   2.52801 	   3.97220
    5.19601 	   2.52955 	   3.95260
    5.19611 	   2.53248 	   3.93315
    5.19621 	   2.53547 	   3.91372
    5.19632 	   2.53727 	   3.89415
    5.19642 	   2.53661 	   3.87450
    5.19652 	   2.53369 	   3.85507
    5.19661 	   2.52783 	   3.83633
    5.19670 	   2.51809 	   3.81931
    5.52826 	   2.50133 	   3.80788
    5.50875 	   2.50133 	   3.80770
    5.48924 	   2.50133 	   3.80756
    5.46973 	   2.50133 	   3.80747
    5.45022 	   2.50133 	   3.80745
    5.43071 	   2.50133 	   3.80748
    5.41120 	   2.50133 	   3.80755
    5.39169 	   2.50133 	   3.80759
    5.37218 	   2.50133 	   3.80758
    5.35267 	   2.50133 	   3.80745
    5.33316 	   2.50133 	   3.80721
    5.31366 	   2.50133 	   3.80688
    5.29415 	   2.50133 	   3.80656
    5.27464 	   2.50133 	   3.80640
    5.25513 	   2.50133 	   3.80658
    5.23564 	   2.50132 	   3.80726
    5.21617 	   2.50132 	   3.80851
    5.54578 	   2.80875 	   4.19145
    5.54587 	   2.79906 	   4.17404
    5.54596 	   2.78778 	   4.15760
    5.54604 	   2.77553 	   4.14187
    5.54612 	   2.76257 	   4.12672
    5.54619 	   2.74911 	   4.11201
    5.54627 	   2.73531 	   4.09763
    5.54634 	   2.72124 	   4.08350
    5.54641 	   2.70691 	   4.06964
    5.54649 	   2.69268 	   4.05567
    5.54656 	   2.67890 	   4.04126
    5.54664 	   2.66561 	   4.02639
    5.54672 	   2.65273 	   4.01117
    5.54680 	   2.64033 	   3.99557
    5.54688 	   2.62835 	   3.97963
    5.54696 	   2.61651 	   3.96358
    5.54704 	   2.60467 	   3.94754
    5.54713 	   2.59286 	   3.93147
    5.54721 	   2.58105 	   3.91541
    5.54729 	   2.56952 	   3.89914
    5.54738 	   2.55883 	   3.88232
    5.54747 	   2.54977 	   3.86457
    5.54757 	   2.54268 	   3.84594
    5.54766 	   2.53378 	   3.82817
    5.54773 	   2.51993 	   3.81398
    5.19591 	   2.47294 	   3.97191
    5.19601 	   2.47161 	   3.95230
    5.19612 	   2.46887 	   3.93283
    5.19622 	   2.46609 	   3.91336
    5.19632 	   2.46448 	   3.89378
    5.19642 	   2.46535 	   3.87414
    5.19652 	   2.46847 	   3.85473
    5.19662 	   2.47452 	   3.83606
    5.19670 	   2.48443 	   3.81914
    5.19534 	   2.41655 	   4.08250
    5.19541 	   2.42925 	   4.06954
    5.19548 	   2.44144 	   4.05610
    5.19555 	   2.45244 	   4.04167
    5.19563 	   2.46175 	   4.02611
    5.19572 	   2.46855 	   4.00931
    5.19477 	   2.29130 	   4.19396
    5.19482 	   2.30608 	   4.18249
    5.19489 	   2.32059 	   4.17068
    5.19495 	   2.33487 	   4.15861
    5.19501 	   2.34899 	   4.14634
    5.19508 	   2.36298 	   4.13392
    5.19514 	   2.37676 	   4.12127
    5.19521 	   2.39032 	   4.10839
    5.21315 	   2.26786 	   4.20468
    5.23177 	   2.25984 	   4.20448
    5.25057 	   2.25221 	   4.20451
    5.26952 	   2.24500 	   4.20474
    5.28863 	   2.23821 	   4.20507
    5.30788 	   2.23183 	   4.20543
    5.32726 	   2.22587 	   4.20573
    5.34676 	   2.22030 	   4.20593
    5.36636 	   2.21511 	   4.20603
    5.38606 	   2.21026 	   4.20604
    5.40583 	   2.20572 	   4.20600
    5.42566 	   2.20147 	   4.20595
    5.44554 	   2.19749 	   4.20592
    5.46548 	   2.19377 	   4.20594
    5.48547 	   2.19033 	   4.20601
    5.50550 	   2.18718 	   4.20613
    5.52558 	   2.18433 	   4.20628
    5.54580 	   2.18999 	   4.18828
    5.54589 	   2.19986 	   4.17096
    5.54597 	   2.21130 	   4.15464
    5.54605 	   2.22372 	   4.13904
    5.54613 	   2.23684 	   4.12403
    5.54621 	   2.25044 	   4.10946
    5.54628 	   2.26439 	   4.09521
    5.54635 	   2.27860 	   4.08123
    5.54642 	   2.29308 	   4.06752
    5.54650 	   2.30745 	   4.05370
    5.54657 	   2.32137 	   4.03942
    5.54665 	   2.33481 	   4.02470
    5.54672 	   2.34785 	   4.00961
    5.54680 	   2.36041 	   3.99413
    5.54689 	   2.37256 	   3.97832
    5.54697 	   2.38456 	   3.96239
    5.54705 	   2.39656 	   3.94647
    5.54713 	   2.40853 	   3.93053
    5.54721 	   2.42051 	   3.91459
    5.54730 	   2.43220 	   3.89844
    5.54738 	   2.44306 	   3.88172
    5.54748 	   2.45231 	   3.86407
    5.54757 	   2.45959 	   3.84552
    5.54766 	   2.46867 	   3.82784
    5.54774 	   2.48266 	   3.81379
    5.19471 	   2.30253 	   4.20526
    5.19471 	   2.32876 	   4.20539
    5.19471 	   2.35499 	   4.20553
    5.19470 	   2.38123 	   4.20566
    5.19470 	   2.40746 	   4.20579
    5.19470 	   2.43369 	   4.20593
    5.19470 	   2.45993 	   4.20606
    5.19470 	   2.48616 	   4.20620
    5.19470 	   2.51239 	   4.20633
    5.19470 	   2.53863 	   4.20647
    5.19470 	   2.56486 	   4.20660
    5.19470 	   2.59109 	   4.20673
    5.19470 	   2.61733 	   4.20687
    5.19470 	   2.64356 	   4.20700
    5.19470 	   2.66979 	   4.20714
    5.19470 	   2.69603 	   4.20727
    5.54570 	   2.24530 	   4.20678
    5.54570 	   2.30879 	   4.20710
    5.54570 	   2.37229 	   4.20743
    5.54570 	   2.43578 	   4.20775
    5.54570 	   2.49928 	   4.20808
    5.54570 	   2.56277 	   4.20840
    5.54569 	   2.62627 	   4.20873
    5.54569 	   2.68976 	   4.20906
    5.54569 	   2.75326 	   4.20938
    6.24780 	   2.82606 	   4.19004
    6.24792 	   2.82618 	   4.16669
    6.24804 	   2.82630 	   4.14335
    6.24816 	   2.82642 	   4.12000
    6.24828 	   2.82654 	   4.09666
    6.24840 	   2.82637 	   4.07332
    6.24852 	   2.82476 	   4.05003
    6.24864 	   2.82088 	   4.02703
    6.24876 	   2.81405 	   4.00472
    6.24887 	   2.80387 	   3.98374
    6.24897 	   2.79122 	   3.96413
    6.24906 	   2.77705 	   3.94559
    6.24916 	   2.76182 	   3.92789
    6.24924 	   2.74603 	   3.91070
    6.24933 	   2.72998 	   3.89375
    6.24942 	   2.71371 	   3.87701
    6.24950 	   2.69716 	   3.86054
    6.24959 	   2.68000 	   3.84471
    6.24966 	   2.66135 	   3.83072
    6.24971 	   2.64050 	   3.82029
    6.24974 	   2.61794 	   3.81444
    6.24975 	   2.59471 	   3.81234
    6.24975 	   2.57136 	   3.81208
    6.24975 	   2.54802 	   3.81196
    6.24976 	   2.52467 	   3.81184
    5.58451 	   2.82068 	   4.21009
    5.62343 	   2.82342 	   4.21042
    5.66241 	   2.82509 	   4.21066
    5.70142 	   2.82590 	   4.21081
    5.74044 	   2.82610 	   4.21090
    5.77946 	   2.82594 	   4.21096
    5.81848 	   2.82563 	   4.21103
[...]
CELL_DATA 	      9403
SCALARS 	cell_scalars 	FLOAT 	         1
LOOKUP_TABLE 	DEFAULT
    -0.48011E+02
    -0.48397E+02
    -0.46935E+02
    -0.51685E+02
    -0.46195E+02
    -0.44178E+02
    -0.50898E+02
    -0.45674E+02
    -0.39313E+02
    -0.45682E+02
    -0.48441E+02
    -0.44989E+02
    -0.40074E+02
    -0.41432E+02
    -0.46448E+02
    -0.48432E+02
    -0.45415E+02
    -0.36826E+02
    -0.56845E+02
    -0.58620E+02
    -0.57810E+02
    -0.60413E+02
    -0.59128E+02
    -0.58176E+02
    -0.60243E+02
    -0.58785E+02
    -0.57765E+02
    -0.59896E+02
    -0.60229E+02
    -0.58564E+02
    -0.58794E+02
    -0.57275E+02
    -0.57685E+02
    -0.58565E+02
    -0.56459E+02
    -0.55020E+02
    -0.59596E+02
    -0.60642E+02
    -0.61302E+02
    -0.62769E+02
    -0.61708E+02
    -0.61424E+02
    -0.63284E+02
    -0.62492E+02
    -0.62028E+02
    -0.62824E+02
    -0.63268E+02
    -0.62448E+02
    -0.63734E+02
    -0.64511E+02
    -0.62459E+02
    -0.63644E+02
    -0.62026E+02
    -0.63816E+02
    -0.64732E+02
    -0.65603E+02
    -0.65768E+02
    -0.65791E+02
    -0.65828E+02
    -0.65084E+02
    -0.65547E+02
    -0.65740E+02
    -0.64995E+02
    -0.63903E+02
    -0.64352E+02
    -0.63490E+02
    -0.63178E+02
    -0.64544E+02
    -0.64626E+02
    -0.64995E+02
    -0.65306E+02
    -0.65357E+02
    -0.63791E+02
    -0.66315E+02
    -0.67012E+02
    -0.67746E+02
    -0.68435E+02
    -0.67005E+02
    -0.67936E+02
    -0.67706E+02
    -0.67406E+02
    -0.66655E+02
    -0.66630E+02
    -0.65447E+02
    -0.63840E+02
    -0.65804E+02
    -0.66475E+02
    -0.65592E+02
    -0.66620E+02
    -0.66678E+02
    -0.64303E+02
    -0.65139E+02
    -0.65882E+02
    -0.66958E+02
    -0.67549E+02
    -0.67222E+02
    -0.68662E+02
    -0.68022E+02
    -0.68141E+02
    -0.67764E+02
    -0.67728E+02
    -0.67469E+02
    -0.66198E+02
    -0.67257E+02
    -0.66893E+02
    -0.66421E+02
    -0.68048E+02
    -0.67389E+02
    -0.65858E+02
    -0.66044E+02
    -0.67282E+02
    -0.68023E+02
    -0.68749E+02
    -0.67676E+02
    -0.68039E+02
    -0.68150E+02
    -0.68061E+02
    -0.67825E+02
    -0.67882E+02
    -0.68258E+02
    -0.66573E+02
    -0.67214E+02
    -0.67175E+02
    -0.66601E+02
    -0.67527E+02
    -0.66925E+02
    -0.65288E+02
    -0.66830E+02
    -0.68287E+02
    -0.68457E+02
    -0.69940E+02
    -0.68000E+02
    -0.68667E+02
    -0.69959E+02
    -0.69516E+02
    -0.69775E+02
    -0.69135E+02
    -0.68432E+02
    -0.66960E+02
    -0.67690E+02
    -0.68390E+02
    -0.67506E+02
    -0.66746E+02
    -0.66345E+02
    -0.66108E+02
    -0.67323E+02
    -0.67565E+02
    -0.67563E+02
    -0.68408E+02
    -0.67975E+02
    -0.68797E+02
    -0.69243E+02
    -0.69277E+02
    -0.71164E+02
    -0.70390E+02
    -0.69379E+02
    -0.69813E+02
    -0.70083E+02
    -0.68784E+02
    -0.67426E+02
    -0.66372E+02
    -0.65674E+02
    -0.66872E+02
    -0.67340E+02
    -0.68872E+02
    -0.68579E+02
    -0.68798E+02
    -0.68827E+02
    -0.69265E+02
    -0.69301E+02
    -0.68441E+02
    -0.68649E+02
    -0.68845E+02
    -0.68571E+02
    -0.71025E+02
    -0.71435E+02
    -0.68462E+02
    -0.68438E+02
    -0.67880E+02
    -0.66060E+02
    -0.64632E+02
    -0.65856E+02
    -0.67824E+02
    -0.67356E+02
    -0.68073E+02
    -0.69156E+02
    -0.69246E+02
    -0.70502E+02
    -0.69706E+02
    -0.68788E+02
    -0.69633E+02
    -0.68312E+02
    -0.66836E+02
    -0.67116E+02
    -0.65815E+02
    -0.66404E+02
    -0.66323E+02
    -0.66017E+02
    -0.64642E+02
    -0.65059E+02
    -0.66147E+02
    -0.65872E+02
    -0.64717E+02
    -0.65377E+02
    -0.65757E+02
    -0.67058E+02
    -0.66491E+02
    -0.65823E+02
    -0.67335E+02
    -0.64916E+02
    -0.61913E+02
    -0.63707E+02
    -0.64191E+02
    -0.63916E+02
    -0.64004E+02
    -0.65043E+02
    -0.63403E+02
    -0.62141E+02
    -0.64654E+02
    -0.64305E+02
    -0.62131E+02
    -0.62984E+02
    -0.63167E+02
    -0.63674E+02
    -0.63781E+02
    -0.63543E+02
    -0.63662E+02
    -0.61601E+02
    -0.60127E+02
    -0.60189E+02
    -0.60297E+02
    -0.61892E+02
    -0.62443E+02
    -0.62392E+02
    -0.59463E+02
    -0.60376E+02
    -0.60248E+02
    -0.58760E+02
    -0.59872E+02
    -0.59296E+02
    -0.58102E+02
    -0.60933E+02
    -0.61150E+02
    -0.59477E+02
    -0.59650E+02
    -0.59968E+02
    -0.59658E+02
    -0.58615E+02
    -0.59973E+02
    -0.60070E+02
    -0.58164E+02
    -0.58792E+02
    -0.56526E+02
    -0.55947E+02
    -0.55534E+02
    -0.56088E+02
    -0.55191E+02
    -0.54523E+02
    -0.56971E+02
    -0.55657E+02
    -0.53976E+02
    -0.57594E+02
    -0.57811E+02
    -0.54357E+02
    -0.55137E+02
    -0.57378E+02
    -0.55101E+02
    -0.53299E+02
    -0.56072E+02
    -0.54980E+02
    -0.53127E+02
    -0.51485E+02
    -0.49977E+02
    -0.51088E+02
    -0.52157E+02
    -0.49579E+02
    -0.49413E+02
    -0.54019E+02
    -0.52585E+02
    -0.49215E+02
    -0.50222E+02
    -0.53425E+02
    -0.51364E+02
    -0.46298E+02
    -0.45576E+02
    -0.48009E+02
    -0.44005E+02
    -0.33287E+02
    -0.48336E+02
    -0.45335E+02
    -0.42504E+02
    -0.44071E+02
    -0.49025E+02
    -0.45260E+02
    -0.39397E+02
    -0.42666E+02
    -0.48821E+02
    -0.45039E+02
    -0.36228E+02
    -0.33596E+02
    -0.33193E+02
    -0.32048E+02
    -0.22472E+02
    -0.51995E+01
     0.26969E+01
     0.14363E+02
    -0.37276E+02
    -0.29181E+02
    -0.24234E+02
    -0.23910E+02
    -0.31711E+02
    -0.29685E+02
    -0.14988E+02
    -0.59482E+01
    -0.84648E+01
    -0.14864E+02
    -0.13959E+02
     0.49987E+01
     0.30924E+02
     0.39899E+02
     0.54816E+02
     0.77718E+02
     0.83168E+02
     0.12248E+03
     0.17442E+02
     0.29610E+02
     0.30084E+02
     0.52289E+02
     0.51861E+02
     0.41496E+02
     0.60689E+02
     0.90409E+02
     0.10896E+03
     0.11035E+03
     0.83297E+02
     0.92128E+02
     0.14039E+03
     0.16184E+03
     0.19967E+03
     0.22982E+03
     0.22466E+03
     0.25929E+03
     0.14243E+03
     0.14839E+03
     0.15814E+03
     0.20492E+03
     0.20523E+03
     0.18763E+03
     0.19920E+03
     0.23074E+03
     0.25938E+03
     0.28351E+03
     0.29405E+03
     0.31345E+03
     0.31688E+03
     0.29536E+03
     0.33416E+03
     0.39622E+03
     0.41321E+03
     0.41928E+03
     0.31900E+03
     0.32520E+03
     0.35364E+03
     0.39009E+03
     0.38385E+03
     0.37421E+03
     0.38429E+03
     0.40351E+03
     0.42597E+03
     0.45101E+03
     0.47250E+03
     0.49501E+03
     0.51403E+03
     0.52126E+03
     0.54405E+03
     0.58485E+03
     0.59578E+03
     0.58038E+03
     0.52353E+03
     0.54511E+03
     0.58328E+03
     0.61210E+03
     0.59652E+03
     0.56984E+03
     0.57076E+03
     0.58785E+03
     0.61179E+03
     0.63757E+03
     0.65867E+03
     0.67815E+03
     0.69718E+03
     0.71048E+03
     0.72395E+03
     0.74527E+03
     0.76140E+03
     0.77035E+03
     0.72802E+03
     0.75986E+03
     0.79689E+03
     0.82930E+03
     0.82842E+03
     0.80889E+03
     0.80493E+03
     0.81731E+03
     0.84047E+03
     0.86575E+03
     0.88513E+03
     0.89880E+03
     0.90820E+03
     0.91150E+03
     0.91208E+03
     0.91860E+03
     0.92982E+03
     0.94006E+03
     0.89783E+03
     0.93521E+03
     0.98131E+03
     0.10160E+04
     0.10338E+04
     0.10366E+04
     0.10360E+04
     0.10413E+04
     0.10548E+04
     0.10715E+04
     0.10857E+04
     0.10967E+04
     0.11066E+04
     0.11158E+04
     0.11254E+04
     0.11374E+04
     0.11499E+04
     0.11601E+04
     0.11144E+04
     0.11581E+04
     0.11987E+04
     0.12224E+04
     0.12361E+04
     0.12402E+04
     0.12403E+04
     0.12419E+04
     0.12499E+04
     0.12614E+04
     0.12722E+04
     0.12810E+04
     0.12898E+04
     0.13006E+04
     0.13160E+04
     0.13327E+04
     0.13445E+04
     0.13529E+04
     0.14374E+04
     0.14401E+04
     0.14317E+04
     0.14264E+04
     0.14221E+04
     0.14186E+04
     0.14151E+04
     0.14122E+04
     0.14182E+04
     0.14290E+04
     0.14372E+04
     0.14395E+04
     0.14381E+04
     0.14419E+04
     0.14562E+04
     0.14734E+04
     0.14858E+04
     0.14924E+04
    -0.47853E+02
    -0.49050E+02
    -0.50800E+02
    -0.52052E+02
    -0.52541E+02
    -0.51553E+02
    -0.51059E+02
    -0.53073E+02
    -0.55234E+02
    -0.53290E+02
    -0.50790E+02
    -0.54022E+02
    -0.55398E+02
    -0.56417E+02
    -0.57722E+02
    -0.55609E+02
    -0.54647E+02
    -0.55771E+02
    -0.56310E+02
    -0.56923E+02
    -0.56545E+02
    -0.58988E+02
    -0.58559E+02
    -0.58174E+02
    -0.59479E+02
    -0.60424E+02
    -0.62593E+02
    -0.60559E+02
    -0.58995E+02
    -0.61571E+02
    -0.60627E+02
    -0.58638E+02
    -0.61340E+02
    -0.59874E+02
    -0.59389E+02
    -0.60170E+02
    -0.63175E+02
    -0.62951E+02
    -0.61399E+02
    -0.63991E+02
    -0.64495E+02
    -0.65135E+02
    -0.65009E+02
    -0.64023E+02
    -0.66320E+02
    -0.65069E+02
    -0.62979E+02
    -0.64758E+02
    -0.64331E+02
    -0.62317E+02
    -0.63699E+02
    -0.62193E+02
    -0.61627E+02
    -0.61177E+02
    -0.64084E+02
    -0.65807E+02
    -0.65435E+02
    -0.65806E+02
    -0.65634E+02
    -0.66836E+02
    -0.66954E+02
    -0.65802E+02
    -0.66185E+02
    -0.66283E+02
    -0.65108E+02
    -0.65369E+02
    -0.65632E+02
    -0.65152E+02
    -0.65499E+02
    -0.65188E+02
    -0.65180E+02
    -0.65116E+02
    -0.65731E+02
    -0.66782E+02
    -0.67083E+02
    -0.65927E+02
    -0.66244E+02
    -0.67107E+02
    -0.66349E+02
    -0.66883E+02
    -0.67894E+02
    -0.68067E+02
    -0.67230E+02
    -0.67772E+02
    -0.67454E+02
    -0.67891E+02
    -0.68469E+02
    -0.66971E+02
    -0.66735E+02
    -0.65365E+02
    -0.65957E+02
    -0.66753E+02
    -0.67523E+02
    -0.66130E+02
    -0.67698E+02
    -0.69203E+02
    -0.68046E+02
    -0.67646E+02
    -0.68805E+02
    -0.69887E+02
    -0.68592E+02
    -0.68402E+02
    -0.66994E+02
    -0.67053E+02
    -0.66828E+02
    -0.66243E+02
    -0.65770E+02
    -0.65333E+02
    -0.66370E+02
    -0.67165E+02
    -0.68532E+02
    -0.67774E+02
    -0.68121E+02
    -0.69431E+02
    -0.69768E+02
    -0.68065E+02
    -0.68300E+02
    -0.69595E+02
    -0.68720E+02
    -0.67693E+02
    -0.67046E+02
    -0.67786E+02
    -0.67660E+02
    -0.68042E+02
    -0.67063E+02
    -0.67921E+02
    -0.67142E+02
    -0.66945E+02
    -0.69454E+02
    -0.69760E+02
    -0.68345E+02
    -0.69595E+02
    -0.70577E+02
    -0.68976E+02
    -0.69383E+02
    -0.70030E+02
    -0.70151E+02
    -0.68956E+02
    -0.67868E+02
    -0.69935E+02
    -0.68183E+02
    -0.67959E+02
    -0.66911E+02
    -0.65822E+02
    -0.67403E+02
    -0.66708E+02
    -0.68017E+02
    -0.68743E+02
    -0.69386E+02
    -0.72086E+02
    -0.71477E+02
    -0.70649E+02
    -0.71487E+02
    -0.69609E+02
    -0.69310E+02
    -0.68741E+02
    -0.68098E+02
    -0.69311E+02
    -0.67151E+02
    -0.67010E+02
    -0.66816E+02
    -0.65685E+02
    -0.66880E+02
    -0.67509E+02
    -0.68379E+02
    -0.68958E+02
    -0.71388E+02
    -0.72017E+02
    -0.69476E+02
    -0.69584E+02
    -0.69566E+02
    -0.68427E+02
    -0.68773E+02
    -0.68327E+02
    -0.68653E+02
    -0.69772E+02
    -0.68372E+02
    -0.68408E+02
    -0.67013E+02
    -0.66261E+02
    -0.66641E+02
    -0.66304E+02
    -0.66005E+02
    -0.65406E+02
    -0.66520E+02
    -0.66592E+02
    -0.68044E+02
    -0.69657E+02
    -0.69352E+02
    -0.69935E+02
    -0.70490E+02
    -0.69159E+02
    -0.69969E+02
    -0.69958E+02
    -0.68262E+02
    -0.67971E+02
    -0.66136E+02
    -0.65217E+02
    -0.65753E+02
    -0.64001E+02
    -0.63937E+02
    -0.64195E+02
    -0.63404E+02
    -0.62260E+02
    -0.65108E+02
    -0.66892E+02
    -0.65756E+02
    -0.66658E+02
    -0.66957E+02
    -0.65850E+02
    -0.66030E+02
    -0.65526E+02
    -0.66258E+02
    -0.66304E+02
    -0.65460E+02
    -0.65451E+02
    -0.62661E+02
    -0.62321E+02
    -0.62203E+02
    -0.60998E+02
    -0.60333E+02
    -0.60173E+02
    -0.61579E+02
    -0.63630E+02
    -0.63767E+02
    -0.63994E+02
    -0.63647E+02
    -0.63208E+02
    -0.63692E+02
    -0.62726E+02
    -0.65047E+02
    -0.65102E+02
    -0.62609E+02
    -0.63590E+02
    -0.58712E+02
    -0.59000E+02
    -0.61247E+02
    -0.60638E+02
    -0.59025E+02
    -0.60061E+02
    -0.59699E+02
    -0.59594E+02
    -0.59985E+02
    -0.61287E+02
    -0.60824E+02
    -0.58341E+02
    -0.59676E+02
    -0.60153E+02
    -0.59670E+02
    -0.60690E+02
    -0.60730E+02
    -0.59247E+02
    -0.55149E+02
    -0.55655E+02
    -0.53020E+02
    -0.55267E+02
    -0.57513E+02
    -0.55018E+02
    -0.53928E+02
    -0.57461E+02
    -0.57494E+02
    -0.54008E+02
    -0.55900E+02
    -0.57086E+02
    -0.54525E+02
    -0.55359E+02
    -0.56560E+02
    -0.55519E+02
    -0.56206E+02
    -0.56895E+02
    -0.31032E+02
    -0.41998E+02
    -0.45755E+02
    -0.44343E+02
    -0.46567E+02
    -0.51678E+02
    -0.51626E+02
    -0.48678E+02
    -0.49469E+02
    -0.53195E+02
    -0.53357E+02
    -0.48912E+02
    -0.49846E+02
    -0.52542E+02
    -0.51283E+02
    -0.50200E+02
    -0.51853E+02
    -0.53534E+02
     0.20044E+02
     0.61689E+01
    -0.27138E+01
    -0.21958E+02
    -0.30448E+02
    -0.29641E+02
    -0.31593E+02
    -0.36579E+02
    -0.45244E+02
    -0.46367E+02
    -0.41090E+02
    -0.40225E+02
    -0.46085E+02
    -0.48068E+02
    -0.44145E+02
    -0.42678E+02
    -0.45818E+02
    -0.48419E+02
     0.12621E+03
     0.87247E+02
     0.81874E+02
     0.62797E+02
     0.47858E+02
     0.34683E+02
     0.52426E+01
    -0.81504E+01
    -0.63962E+01
    -0.28094E+01
    -0.51911E+01
    -0.18432E+02
    -0.30774E+02
    -0.26912E+02
    -0.22056E+02
    -0.22603E+02
    -0.29962E+02
    -0.38877E+02
     0.27094E+03
     0.24257E+03
     0.23232E+03
     0.19879E+03
     0.17270E+03
     0.14622E+03
     0.10040E+03
     0.10585E+03
     0.12525E+03
     0.10527E+03
     0.83925E+02
     0.56361E+02
     0.50397E+02
     0.59495E+02
     0.51060E+02
     0.41279E+02
     0.34923E+02
     0.16510E+02
     0.44539E+03
     0.43888E+03
     0.39669E+03
     0.33111E+03
     0.32580E+03
     0.33401E+03
     0.30928E+03
     0.29397E+03
     0.27859E+03
     0.24746E+03
     0.21919E+03
     0.20088E+03
     0.20369E+03
     0.21764E+03
     0.19824E+03
     0.16450E+03
     0.16449E+03
     0.14874E+03
     0.61943E+03
     0.62335E+03
     0.58688E+03
     0.54736E+03
     0.53028E+03
     0.50899E+03
     0.47989E+03
     0.45740E+03
     0.43492E+03
     0.41116E+03
     0.39649E+03
     0.38834E+03
     0.38715E+03
     0.40309E+03
     0.39644E+03
     0.35158E+03
     0.34461E+03
     0.33016E+03
     0.78421E+03
     0.77910E+03
     0.76014E+03
     0.73811E+03
     0.71402E+03
     0.68133E+03
     0.64915E+03
     0.62279E+03
     0.60003E+03
     0.58780E+03
     0.59695E+03
     0.61809E+03
     0.62405E+03
     0.62023E+03
     0.61139E+03
     0.57060E+03
     0.54941E+03
     0.53077E+03
     0.95758E+03
     0.96805E+03
     0.96582E+03
     0.95290E+03
     0.92462E+03
     0.89151E+03
     0.87097E+03
     0.85761E+03
     0.84408E+03
     0.83497E+03
     0.83535E+03
     0.84144E+03
     0.83791E+03
     0.82140E+03
     0.80258E+03
     0.77185E+03
     0.74943E+03
     0.73331E+03
     0.11689E+04
     0.11617E+04
     0.11506E+04
     0.11351E+04
     0.11118E+04
     0.10898E+04
     0.10780E+04
     0.10707E+04
     0.10623E+04
     0.10530E+04
     0.10425E+04
     0.10299E+04
     0.10150E+04
     0.99273E+03
     0.96354E+03
     0.93557E+03
     0.92101E+03
     0.92857E+03
     0.13542E+04
     0.13443E+04
     0.13296E+04
     0.13116E+04
     0.12928E+04
     0.12815E+04
     0.12775E+04
     0.12725E+04
     0.12647E+04
     0.12557E+04
     0.12483E+04
     0.12418E+04
     0.12335E+04
     0.12202E+04
     0.12009E+04
     0.11809E+04
     0.11649E+04
     0.11687E+04
     0.14934E+04
     0.14863E+04
     0.14731E+04
     0.14565E+04
     0.14429E+04
     0.14406E+04
     0.14453E+04
     0.14456E+04
     0.14391E+04
     0.14309E+04
     0.14287E+04
     0.14329E+04
     0.14361E+04
     0.14407E+04
     0.14488E+04
     0.14571E+04
     0.14655E+04
     0.14545E+04
    -0.33926E+02
    -0.28218E+02
    -0.34496E+02
    -0.18602E+02
    -0.11982E+02
    -0.28270E+02
    -0.53297E+02
    -0.47223E+02
    -0.49137E+02
    -0.50998E+02
    -0.47935E+02
    -0.51733E+02
    -0.50706E+02
    -0.56499E+02
    -0.41651E+02
    -0.30902E+02
    -0.36559E+02
    -0.41201E+02
    -0.33372E+02
    -0.39051E+02
    -0.36548E+02
    -0.47774E+02
    -0.52197E+02
    -0.52706E+02
    -0.37189E+02
    -0.34855E+02
    -0.47642E+02
    -0.51152E+02
    -0.49497E+02
    -0.50559E+02
    -0.23821E+02
    -0.37771E+02
    -0.38582E+02
    -0.49200E+02
    -0.21905E+02
    -0.34229E+02
    -0.21857E+02
    -0.31586E+02
    -0.17077E+02
    -0.22802E+02
    -0.13899E+02
    -0.21465E+02
    -0.21634E+02
    -0.33824E+02
    -0.30544E+02
    -0.39833E+02
    -0.26575E+02
    -0.34111E+02
    -0.19538E+02
    -0.25428E+02
    -0.21086E+02
    -0.38421E+02
    -0.32839E+02
    -0.40433E+02
    -0.36815E+02
    -0.44444E+02
    -0.39477E+02
    -0.44730E+02
    -0.39329E+02
    -0.41627E+02
    -0.37147E+02
    -0.40108E+02
    -0.39151E+02
    -0.46359E+02
    -0.43617E+02
    -0.48994E+02
    -0.43736E+02
    -0.45123E+02
    -0.40072E+02
    -0.43851E+02
    -0.41506E+02
    -0.38179E+02
    -0.33175E+02
    -0.31508E+02
    -0.29641E+02
    -0.28697E+02
    -0.28304E+02
    -0.28260E+02
    -0.27930E+02
    -0.26847E+02
    -0.26272E+02
    -0.25789E+02
    -0.25838E+02
    -0.25688E+02
    -0.24944E+02
    -0.24893E+02
    -0.24403E+02
    -0.24844E+02
    -0.24442E+02
    -0.24436E+02
    -0.23749E+02
    -0.23910E+02
    -0.24583E+02
    -0.25103E+02
    -0.25061E+02
    -0.24360E+02
    -0.25084E+02
    -0.25442E+02
    -0.25484E+02
    -0.28517E+02
    -0.43737E+02
    -0.42461E+02
    -0.29129E+02
    -0.39556E+02
    -0.42152E+02
    -0.42299E+02
    -0.39585E+02
    -0.42798E+02
    -0.39181E+02
    -0.42383E+02
    -0.39415E+02
    -0.42278E+02
    -0.38950E+02
    -0.42862E+02
    -0.39919E+02
    -0.30580E+02
    -0.29196E+02
    -0.30662E+02
    -0.30256E+02
    -0.29258E+02
    -0.28517E+02
    -0.27937E+02
    -0.27851E+02
    -0.22866E+02
    -0.24500E+02
    -0.27396E+02
    -0.23475E+02
    -0.26510E+02
    -0.28520E+02
    -0.30689E+02
    -0.28384E+02
    -0.32540E+02
    -0.30052E+02
    -0.33230E+02
    -0.30698E+02
    -0.33380E+02
    -0.31719E+02
    -0.34210E+02
    -0.31799E+02
    -0.35849E+02
    -0.33154E+02
    -0.36980E+02
    -0.34141E+02
    -0.36735E+02
    -0.34426E+02
    -0.13583E+02
    -0.14178E+02
    -0.15819E+02
    -0.15743E+02
    -0.15047E+02
    -0.16024E+02
    -0.15628E+02
    -0.16007E+02
    -0.17738E+02
    -0.17004E+02
    -0.17956E+02
    -0.17402E+02
    -0.16020E+02
    -0.16553E+02
    -0.16518E+02
    -0.17130E+02
    -0.19365E+02
    -0.17866E+02
    -0.26174E+02
    -0.27794E+02
    -0.24790E+02
    -0.24820E+02
    -0.25253E+02
    -0.25515E+02
    -0.24955E+02
    -0.24977E+02
    -0.24428E+02
    -0.24840E+02
    -0.24543E+02
    -0.25269E+02
    -0.24436E+02
    -0.24680E+02
    -0.25309E+02
    -0.25300E+02
    -0.26448E+02
    -0.26020E+02
    -0.26825E+02
    -0.27078E+02
    -0.27442E+02
    -0.26907E+02
    -0.28093E+02
    -0.27631E+02
    -0.29752E+02
    -0.28641E+02
    -0.32430E+02
    -0.30878E+02
    -0.34943E+02
    -0.30284E+02
    -0.22898E+02
    -0.40353E+02
    -0.36746E+02
    -0.15180E+02
    -0.13855E+02
    -0.25516E+02
    -0.23663E+02
    -0.34938E+02
    -0.32962E+02
    -0.27372E+02
    -0.26083E+02
    -0.27537E+02
    -0.15922E+02
    -0.16087E+02
    -0.16062E+02
    -0.34034E+02
    -0.32933E+02
    -0.33903E+02
    -0.32291E+02
    -0.34485E+02
    -0.32416E+02
    -0.35502E+02
    -0.33106E+02
    -0.26483E+02
    -0.26788E+02
    -0.25773E+02
    -0.25147E+02
    -0.24771E+02
    -0.24075E+02
    -0.23168E+02
    -0.23078E+02
    -0.21753E+02
    -0.21113E+02
    -0.15876E+02
    -0.16264E+02
    -0.17056E+02
    -0.16487E+02
    -0.17043E+02
    -0.16650E+02
    -0.16872E+02
    -0.27799E+02
    -0.26699E+02