# vtk DataFile Version 3.14.1
BMesh by KP LIAO
ASCII
DATASET UNSTRUCTURED_GRID
POINTS 	      8150 	FLOAT
    5.20012 	   2.72378 	   4.29774
    5.19710 	   2.59631 	   4.18805
    5.19424 	   2.52782 	   4.08435
    5.18926 	   2.49856 	   3.90327
    5.54001 	   2.49853 	   3.88950
    5.55097 	   2.81827 	   4.28754
    5.19425 	   2.47135 	   4.08467
    5.19713 	   2.40404 	   4.18914
    5.20019 	   2.27782 	   4.30027
    5.55107 	   2.18332 	   4.29114
    6.25271 	   2.82746 	   4.26816
    6.24174 	   2.49853 	   3.87017
    6.25281 	   2.17414 	   4.27186
    7.87912 	   2.49853 	   3.82507
    7.89019 	   2.17414 	   4.22676
    7.89008 	   2.82746 	   4.22306
    9.29355 	   2.82746 	   4.18440
    9.28259 	   2.49853 	   3.78641
    9.29365 	   2.17414 	   4.18811
    9.64727 	   2.49897 	   3.85440
    9.64720 	   2.49229 	   3.85182
    9.57763 	   2.49241 	   3.87481
    9.59682 	   2.49936 	   3.92448
    9.57901 	   2.48763 	   3.92504
    9.55250 	   2.48290 	   3.91910
    9.57555 	   2.49865 	   3.79915
    9.54880 	   2.49861 	   3.79242
    9.52020 	   2.47692 	   3.91442
    9.51670 	   2.49857 	   3.78713
    9.57763 	   2.50575 	   3.87474
    9.64719 	   2.50563 	   3.85175
    9.57901 	   2.51110 	   3.92490
    9.55250 	   2.51575 	   3.91891
    9.52020 	   2.52167 	   3.91417
    9.83601 	   2.82746 	   4.16946
    9.64442 	   2.82746 	   4.17474
    9.83063 	   2.49968 	   3.97406
    9.63804 	   2.49948 	   3.94310
    9.52746 	   2.82746 	   4.17796
    9.64452 	   2.17414 	   4.17844
    9.83612 	   2.17414 	   4.17317
    9.52757 	   2.17414 	   4.18166
    9.43167 	   2.17414 	   4.18431
    9.43157 	   2.82746 	   4.18060
    9.83606 	   2.50080 	   4.17131
    9.64661 	   2.49884 	   3.83041
    9.42060 	   2.49853 	   3.78261
    5.13579 	   2.51654 	   4.08727
    5.13416 	   2.52587 	   4.02750
    5.13099 	   2.49860 	   3.91254
    5.13416 	   2.47264 	   4.02781
    5.13580 	   2.48264 	   4.08746
    5.07586 	   2.47653 	   4.03579
    5.07696 	   2.49034 	   4.07570
    5.07733 	   2.49959 	   4.08898
    5.07696 	   2.50869 	   4.07560
    5.07585 	   2.52205 	   4.03554
    5.06654 	   2.49951 	   4.07594
    5.01738 	   2.51989 	   4.03716
    5.01848 	   2.49951 	   4.07726
    5.01738 	   2.47869 	   4.03739
    5.07292 	   2.49868 	   3.92911
    5.01516 	   2.49883 	   3.95654
    4.94000 	   2.49929 	   4.03941
    5.14164 	   2.69317 	   4.29953
    5.14170 	   2.30843 	   4.30171
    4.94267 	   2.50080 	   4.30610
    5.13872 	   2.57103 	   4.19359
    5.02674 	   2.50019 	   4.19708
    5.13875 	   2.42936 	   4.19439
    5.21854 	   2.73221 	   4.29669
    5.23714 	   2.74024 	   4.29588
    5.25593 	   2.74786 	   4.29530
    5.27488 	   2.75507 	   4.29489
    5.29399 	   2.76187 	   4.29460
    5.31324 	   2.76825 	   4.29432
    5.33262 	   2.77421 	   4.29399
    5.35212 	   2.77978 	   4.29355
    5.37171 	   2.78497 	   4.29300
    5.39140 	   2.78982 	   4.29237
    5.41115 	   2.79436 	   4.29168
    5.43097 	   2.79861 	   4.29098
    5.45085 	   2.80259 	   4.29030
    5.47078 	   2.80630 	   4.28966
    5.49075 	   2.80974 	   4.28907
    5.51078 	   2.81290 	   4.28853
    5.53086 	   2.81575 	   4.28803
    5.19981 	   2.70876 	   4.28659
    5.19950 	   2.69398 	   4.27513
    5.19917 	   2.67947 	   4.26334
    5.19884 	   2.66518 	   4.25128
    5.19850 	   2.65105 	   4.23902
    5.19816 	   2.63706 	   4.22661
    5.19781 	   2.62327 	   4.21398
    5.19746 	   2.60970 	   4.20111
    5.19675 	   2.58346 	   4.17524
    5.19639 	   2.57075 	   4.16229
    5.19602 	   2.55855 	   4.14886
    5.19562 	   2.54755 	   4.13445
    5.19519 	   2.53823 	   4.11890
    5.19473 	   2.53142 	   4.10211
    5.19370 	   2.52701 	   4.06473
    5.19316 	   2.52833 	   4.04512
    5.19263 	   2.53106 	   4.02565
    5.19209 	   2.53383 	   4.00619
    5.19155 	   2.53543 	   3.98662
    5.19101 	   2.53454 	   3.96698
    5.19048 	   2.53142 	   3.94759
    5.18996 	   2.52536 	   3.92892
    5.18950 	   2.51543 	   3.91201
    5.52051 	   2.49853 	   3.88993
    5.50100 	   2.49853 	   3.89038
    5.48150 	   2.49853 	   3.89088
    5.46200 	   2.49853 	   3.89143
    5.44250 	   2.49853 	   3.89205
    5.42300 	   2.49853 	   3.89272
    5.40350 	   2.49853 	   3.89342
    5.38400 	   2.49853 	   3.89411
    5.36450 	   2.49853 	   3.89473
    5.34500 	   2.49853 	   3.89524
    5.32549 	   2.49853 	   3.89563
    5.30599 	   2.49853 	   3.89594
    5.28648 	   2.49853 	   3.89626
    5.26698 	   2.49853 	   3.89674
    5.24748 	   2.49853 	   3.89756
    5.22802 	   2.49854 	   3.89887
    5.20860 	   2.49854 	   3.90077
    5.55047 	   2.81008 	   4.26938
    5.55000 	   2.80020 	   4.25208
    5.54955 	   2.78874 	   4.23577
    5.54912 	   2.77632 	   4.22018
    5.54870 	   2.76320 	   4.20518
    5.54830 	   2.74958 	   4.19062
    5.54791 	   2.73562 	   4.17639
    5.54753 	   2.72140 	   4.16242
    5.54715 	   2.70692 	   4.14872
    5.54677 	   2.69254 	   4.13491
    5.54638 	   2.67861 	   4.12065
    5.54597 	   2.66516 	   4.10594
    5.54556 	   2.65212 	   4.09086
    5.54513 	   2.63955 	   4.07540
    5.54469 	   2.62739 	   4.05960
    5.54426 	   2.61539 	   4.04368
    5.54382 	   2.60338 	   4.02777
    5.54338 	   2.59139 	   4.01184
    5.54294 	   2.57941 	   3.99591
    5.54250 	   2.56771 	   3.97978
    5.54204 	   2.55684 	   3.96308
    5.54155 	   2.54758 	   3.94543
    5.54104 	   2.54029 	   3.92689
    5.54055 	   2.53120 	   3.90922
    5.54017 	   2.51720 	   3.89519
    5.19371 	   2.47194 	   4.06504
    5.19317 	   2.47039 	   4.04545
    5.19264 	   2.46745 	   4.02601
    5.19210 	   2.46445 	   4.00658
    5.19156 	   2.46263 	   3.98703
    5.19102 	   2.46329 	   3.96739
    5.19049 	   2.46620 	   3.94796
    5.18997 	   2.47204 	   3.92922
    5.18950 	   2.48178 	   3.91220
    5.19677 	   2.41674 	   4.17619
    5.19641 	   2.42930 	   4.16309
    5.19604 	   2.44135 	   4.14953
    5.19564 	   2.45219 	   4.13499
    5.19521 	   2.46133 	   4.11933
    5.19474 	   2.46795 	   4.10247
    5.19988 	   2.29271 	   4.28895
    5.19956 	   2.30736 	   4.27732
    5.19923 	   2.32174 	   4.26537
    5.19889 	   2.33589 	   4.25314
    5.19855 	   2.34988 	   4.24073
    5.19820 	   2.36373 	   4.22816
    5.19785 	   2.37737 	   4.21537
    5.19749 	   2.39080 	   4.20235
    5.21861 	   2.26938 	   4.29931
    5.23722 	   2.26135 	   4.29859
    5.25601 	   2.25373 	   4.29810
    5.27496 	   2.24652 	   4.29777
    5.29407 	   2.23972 	   4.29756
    5.31332 	   2.23335 	   4.29735
    5.33271 	   2.22739 	   4.29709
    5.35220 	   2.22183 	   4.29671
    5.37180 	   2.21663 	   4.29622
    5.39149 	   2.21178 	   4.29564
    5.41124 	   2.20724 	   4.29501
    5.43107 	   2.20299 	   4.29435
    5.45094 	   2.19901 	   4.29372
    5.47087 	   2.19530 	   4.29312
    5.49085 	   2.19185 	   4.29258
    5.51088 	   2.18870 	   4.29207
    5.53095 	   2.18585 	   4.29160
    5.55057 	   2.19132 	   4.27289
    5.55009 	   2.20100 	   4.25547
    5.54964 	   2.21226 	   4.23904
    5.54920 	   2.22451 	   4.22331
    5.54879 	   2.23747 	   4.20816
    5.54838 	   2.25091 	   4.19344
    5.54799 	   2.26471 	   4.17906
    5.54760 	   2.27877 	   4.16492
    5.54721 	   2.29310 	   4.15106
    5.54683 	   2.30732 	   4.13709
    5.54643 	   2.32108 	   4.12268
    5.54602 	   2.33437 	   4.10781
    5.54560 	   2.34724 	   4.09259
    5.54517 	   2.35963 	   4.07698
    5.54473 	   2.37161 	   4.06104
    5.54429 	   2.38343 	   4.04500
    5.54385 	   2.39526 	   4.02895
    5.54341 	   2.40706 	   4.01289
    5.54297 	   2.41886 	   3.99682
    5.54252 	   2.43038 	   3.98056
    5.54205 	   2.44107 	   3.96373
    5.54157 	   2.45012 	   3.94599
    5.54105 	   2.45720 	   3.92736
    5.54056 	   2.46609 	   3.90959
    5.54017 	   2.47993 	   3.89540
    5.20019 	   2.30405 	   4.30012
    5.20018 	   2.33028 	   4.29997
    5.20018 	   2.35652 	   4.29982
    5.20017 	   2.38275 	   4.29967
    5.20017 	   2.40898 	   4.29953
    5.20017 	   2.43522 	   4.29938
    5.20016 	   2.46145 	   4.29923
    5.20016 	   2.48768 	   4.29908
    5.20015 	   2.51392 	   4.29893
    5.20015 	   2.54015 	   4.29878
    5.20015 	   2.56638 	   4.29863
    5.20014 	   2.59262 	   4.29849
    5.20014 	   2.61885 	   4.29834
    5.20013 	   2.64508 	   4.29819
    5.20013 	   2.67132 	   4.29804
    5.20013 	   2.69755 	   4.29789
    5.55106 	   2.24682 	   4.29078
    5.55105 	   2.31031 	   4.29042
    5.55104 	   2.37381 	   4.29006
    5.55103 	   2.43730 	   4.28970
    5.55102 	   2.50080 	   4.28934
    5.55101 	   2.56429 	   4.28898
    5.55100 	   2.62779 	   4.28862
    5.55099 	   2.69128 	   4.28826
    5.55098 	   2.75478 	   4.28790
    6.25206 	   2.82733 	   4.24483
    6.25142 	   2.82720 	   4.22149
    6.25078 	   2.82706 	   4.19815
    6.25013 	   2.82693 	   4.17482
    6.24949 	   2.82680 	   4.15148
    6.24885 	   2.82637 	   4.12815
    6.24821 	   2.82452 	   4.10490
    6.24758 	   2.82039 	   4.08194
    6.24696 	   2.81332 	   4.05972
    6.24639 	   2.80291 	   4.03886
    6.24585 	   2.79006 	   4.01939
    6.24535 	   2.77568 	   4.00101
    6.24486 	   2.76026 	   3.98349
    6.24440 	   2.74429 	   3.96647
    6.24393 	   2.72806 	   3.94970
    6.24348 	   2.71160 	   3.93314
    6.24303 	   2.69488 	   3.91686
    6.24260 	   2.67756 	   3.90123
    6.24222 	   2.65875 	   3.88743
    6.24194 	   2.63779 	   3.87724
    6.24178 	   2.61517 	   3.87163
    6.24173 	   2.59191 	   3.86978
    6.24173 	   2.56857 	   3.86977
    6.24174 	   2.54522 	   3.86991
    6.24174 	   2.52188 	   3.87004
    5.58978 	   2.82221 	   4.28661
    5.62869 	   2.82494 	   4.28564
    5.66766 	   2.82661 	   4.28458
    5.70665 	   2.82743 	   4.28345
    5.74565 	   2.82763 	   4.28227
    5.78466 	   2.82746 	   4.28105
    5.82365 	   2.82715 	   4.27985
[...]
CELL_DATA 	      9403
SCALARS 	cell_scalars 	FLOAT 	         1
LOOKUP_TABLE 	DEFAULT
    -0.60169E+02
    -0.57974E+02
    -0.56183E+02
    -0.55294E+02
    -0.56285E+02
    -0.54392E+02
    -0.55136E+02
    -0.56551E+02
    -0.53063E+02
    -0.51118E+02
    -0.53603E+02
    -0.48456E+02
    -0.41594E+02
    -0.44202E+02
    -0.48779E+02
    -0.40275E+02
    -0.33845E+02
    -0.41920E+02
    -0.57724E+02
    -0.58677E+02
    -0.57183E+02
    -0.57986E+02
    -0.58957E+02
    -0.58873E+02
    -0.57890E+02
    -0.58646E+02
    -0.57820E+02
    -0.58230E+02
    -0.59797E+02
    -0.57854E+02
    -0.56170E+02
    -0.57324E+02
    -0.57460E+02
    -0.56308E+02
    -0.55493E+02
    -0.55238E+02
    -0.65992E+02
    -0.67577E+02
    -0.65490E+02
    -0.65612E+02
    -0.64662E+02
    -0.64388E+02
    -0.62525E+02
    -0.61944E+02
    -0.60078E+02
    -0.61685E+02
    -0.63882E+02
    -0.60671E+02
    -0.61760E+02
    -0.64177E+02
    -0.60400E+02
    -0.58733E+02
    -0.60967E+02
    -0.59784E+02
    -0.65045E+02
    -0.70257E+02
    -0.68802E+02
    -0.69459E+02
    -0.68454E+02
    -0.68311E+02
    -0.67153E+02
    -0.66694E+02
    -0.64931E+02
    -0.65122E+02
    -0.66779E+02
    -0.62654E+02
    -0.62258E+02
    -0.63941E+02
    -0.62082E+02
    -0.62789E+02
    -0.63477E+02
    -0.59029E+02
    -0.67144E+02
    -0.69965E+02
    -0.68684E+02
    -0.69753E+02
    -0.68319E+02
    -0.67553E+02
    -0.67805E+02
    -0.67192E+02
    -0.66845E+02
    -0.68112E+02
    -0.68464E+02
    -0.64527E+02
    -0.63808E+02
    -0.65162E+02
    -0.63715E+02
    -0.64217E+02
    -0.64096E+02
    -0.61767E+02
    -0.68901E+02
    -0.70401E+02
    -0.70192E+02
    -0.70876E+02
    -0.69309E+02
    -0.68794E+02
    -0.68616E+02
    -0.67375E+02
    -0.67832E+02
    -0.68752E+02
    -0.68071E+02
    -0.65872E+02
    -0.66349E+02
    -0.67025E+02
    -0.65071E+02
    -0.65790E+02
    -0.65942E+02
    -0.63907E+02
    -0.67790E+02
    -0.68246E+02
    -0.68606E+02
    -0.68821E+02
    -0.69586E+02
    -0.70980E+02
    -0.70144E+02
    -0.69459E+02
    -0.70008E+02
    -0.69409E+02
    -0.68158E+02
    -0.66695E+02
    -0.66545E+02
    -0.67302E+02
    -0.66297E+02
    -0.66703E+02
    -0.66774E+02
    -0.65606E+02
    -0.68788E+02
    -0.68506E+02
    -0.68676E+02
    -0.68213E+02
    -0.68433E+02
    -0.69021E+02
    -0.69913E+02
    -0.69825E+02
    -0.70561E+02
    -0.70828E+02
    -0.69759E+02
    -0.69498E+02
    -0.68557E+02
    -0.68944E+02
    -0.69273E+02
    -0.68060E+02
    -0.67172E+02
    -0.67800E+02
    -0.70737E+02
    -0.69857E+02
    -0.69997E+02
    -0.70297E+02
    -0.70877E+02
    -0.70391E+02
    -0.71145E+02
    -0.70943E+02
    -0.69956E+02
    -0.71030E+02
    -0.71204E+02
    -0.70959E+02
    -0.71722E+02
    -0.70575E+02
    -0.70162E+02
    -0.68618E+02
    -0.67472E+02
    -0.67022E+02
    -0.70984E+02
    -0.68866E+02
    -0.71076E+02
    -0.70349E+02
    -0.72328E+02
    -0.72799E+02
    -0.72273E+02
    -0.73077E+02
    -0.72270E+02
    -0.72197E+02
    -0.71141E+02
    -0.69550E+02
    -0.69739E+02
    -0.70313E+02
    -0.69285E+02
    -0.69593E+02
    -0.68354E+02
    -0.66119E+02
    -0.69518E+02
    -0.69713E+02
    -0.71174E+02
    -0.69879E+02
    -0.71010E+02
    -0.70521E+02
    -0.69549E+02
    -0.71590E+02
    -0.70970E+02
    -0.70258E+02
    -0.70232E+02
    -0.70008E+02
    -0.69008E+02
    -0.67965E+02
    -0.66885E+02
    -0.66820E+02
    -0.66656E+02
    -0.64937E+02
    -0.64996E+02
    -0.66347E+02
    -0.68367E+02
    -0.69117E+02
    -0.70733E+02
    -0.68255E+02
    -0.68258E+02
    -0.68685E+02
    -0.67132E+02
    -0.65894E+02
    -0.64693E+02
    -0.65657E+02
    -0.64609E+02
    -0.64829E+02
    -0.65537E+02
    -0.64957E+02
    -0.64625E+02
    -0.63647E+02
    -0.62146E+02
    -0.62330E+02
    -0.61219E+02
    -0.62398E+02
    -0.63888E+02
    -0.61896E+02
    -0.63893E+02
    -0.63189E+02
    -0.62297E+02
    -0.62878E+02
    -0.62207E+02
    -0.61988E+02
    -0.60710E+02
    -0.61882E+02
    -0.62686E+02
    -0.62759E+02
    -0.63261E+02
    -0.61438E+02
    -0.58825E+02
    -0.57554E+02
    -0.56893E+02
    -0.58350E+02
    -0.57708E+02
    -0.59076E+02
    -0.60502E+02
    -0.58024E+02
    -0.57299E+02
    -0.58163E+02
    -0.58970E+02
    -0.58795E+02
    -0.58481E+02
    -0.59776E+02
    -0.58241E+02
    -0.59081E+02
    -0.59969E+02
    -0.59002E+02
    -0.57547E+02
    -0.52148E+02
    -0.51239E+02
    -0.54575E+02
    -0.54942E+02
    -0.54012E+02
    -0.56256E+02
    -0.57120E+02
    -0.54253E+02
    -0.54739E+02
    -0.56605E+02
    -0.54716E+02
    -0.56241E+02
    -0.57535E+02
    -0.55803E+02
    -0.57673E+02
    -0.56884E+02
    -0.58770E+02
    -0.55101E+02
    -0.54269E+02
    -0.49717E+02
    -0.47391E+02
    -0.51846E+02
    -0.53468E+02
    -0.52448E+02
    -0.53148E+02
    -0.54349E+02
    -0.54951E+02
    -0.52771E+02
    -0.52290E+02
    -0.55387E+02
    -0.54190E+02
    -0.53946E+02
    -0.56211E+02
    -0.56029E+02
    -0.58756E+02
    -0.52291E+02
    -0.52768E+02
    -0.52066E+02
    -0.45437E+02
    -0.46973E+02
    -0.53587E+02
    -0.53074E+02
    -0.50869E+02
    -0.51044E+02
    -0.54164E+02
    -0.54690E+02
    -0.51965E+02
    -0.50234E+02
    -0.52781E+02
    -0.52001E+02
    -0.54962E+02
    -0.55074E+02
    -0.56096E+02
    -0.51000E+02
    -0.51022E+02
    -0.50736E+02
    -0.48459E+02
    -0.48604E+02
    -0.51957E+02
    -0.53375E+02
    -0.52313E+02
    -0.50674E+02
    -0.48581E+02
    -0.48150E+02
    -0.52918E+02
    -0.52866E+02
    -0.50424E+02
    -0.46946E+02
    -0.55183E+02
    -0.54759E+02
    -0.54148E+02
    -0.48679E+02
    -0.48599E+02
    -0.48772E+02
    -0.50160E+02
    -0.51350E+02
    -0.51171E+02
    -0.52423E+02
    -0.53134E+02
    -0.52304E+02
    -0.49530E+02
    -0.47047E+02
    -0.47317E+02
    -0.49428E+02
    -0.53609E+02
    -0.53101E+02
    -0.51192E+02
    -0.47055E+02
    -0.46734E+02
    -0.46485E+02
    -0.46729E+02
    -0.47040E+02
    -0.51608E+02
    -0.53739E+02
    -0.49278E+02
    -0.49681E+02
    -0.52249E+02
    -0.53176E+02
    -0.52659E+02
    -0.50063E+02
    -0.47341E+02
    -0.45538E+02
    -0.43845E+02
    -0.40456E+02
    -0.43431E+02
    -0.42086E+02
    -0.29645E+02
    -0.45955E+02
    -0.45943E+02
    -0.46172E+02
    -0.48816E+02
    -0.49044E+02
    -0.44827E+02
    -0.44374E+02
    -0.45794E+02
    -0.48165E+02
    -0.49593E+02
    -0.48522E+02
    -0.45528E+02
    -0.38786E+02
    -0.29035E+02
    -0.14588E+02
     0.22078E+01
     0.18696E+02
     0.44277E+02
    -0.43923E+02
    -0.42607E+02
    -0.42211E+02
    -0.43148E+02
    -0.40254E+02
    -0.33531E+02
    -0.29762E+02
    -0.25568E+02
    -0.19786E+02
    -0.14400E+02
    -0.99364E+01
    -0.24486E+01
     0.95830E+01
     0.25974E+02
     0.52509E+02
     0.88331E+02
     0.12654E+03
     0.16197E+03
    -0.34015E+02
    -0.28953E+02
    -0.23986E+02
    -0.18720E+02
    -0.10542E+02
     0.22554E+01
     0.17785E+02
     0.36952E+02
     0.59184E+02
     0.79593E+02
     0.99440E+02
     0.12241E+03
     0.14971E+03
     0.18224E+03
     0.22167E+03
     0.26552E+03
     0.30494E+03
     0.33493E+03
     0.29244E+01
     0.18949E+02
     0.39351E+02
     0.61428E+02
     0.84251E+02
     0.11221E+03
     0.14505E+03
     0.17887E+03
     0.20982E+03
     0.23665E+03
     0.26711E+03
     0.30131E+03
     0.33475E+03
     0.37425E+03
     0.41358E+03
     0.45446E+03
     0.49202E+03
     0.52662E+03
     0.16561E+03
     0.19149E+03
     0.21866E+03
     0.24199E+03
     0.26738E+03
     0.29736E+03
     0.32962E+03
     0.36368E+03
     0.39392E+03
     0.42013E+03
     0.45233E+03
     0.49121E+03
     0.52626E+03
     0.56783E+03
     0.60482E+03
     0.64189E+03
     0.67835E+03
     0.71367E+03
     0.32672E+03
     0.34777E+03
     0.37286E+03
     0.39820E+03
     0.42489E+03
     0.45272E+03
     0.48221E+03
     0.51475E+03
     0.55025E+03
     0.59020E+03
     0.63223E+03
     0.67550E+03
     0.71370E+03
     0.74961E+03
     0.78359E+03
     0.81648E+03
     0.85018E+03
     0.88426E+03
    -0.46737E+02
    -0.55398E+02
    -0.56385E+02
    -0.52287E+02
    -0.49664E+02
    -0.51723E+02
    -0.56839E+02
    -0.56671E+02
    -0.54686E+02
    -0.56486E+02
    -0.55510E+02
    -0.55704E+02
    -0.70206E+02
    -0.72039E+02
    -0.60526E+02
    -0.62373E+02
    -0.62728E+02
    -0.64436E+02
    -0.54321E+02
    -0.54844E+02
    -0.57064E+02
    -0.58453E+02
    -0.54117E+02
    -0.53967E+02
    -0.58949E+02
    -0.57475E+02
    -0.55710E+02
    -0.59186E+02
    -0.57357E+02
    -0.56169E+02
    -0.60674E+02
    -0.60177E+02
    -0.59173E+02
    -0.59904E+02
    -0.60814E+02
    -0.62351E+02
    -0.61410E+02
    -0.56700E+02
    -0.56631E+02
    -0.61205E+02
    -0.60361E+02
    -0.58746E+02
    -0.61005E+02
    -0.60118E+02
    -0.60255E+02
    -0.63811E+02
    -0.62559E+02
    -0.62582E+02
    -0.64780E+02
    -0.64561E+02
    -0.66394E+02
    -0.66426E+02
    -0.66635E+02
    -0.65225E+02
    -0.62383E+02
    -0.62597E+02
    -0.60133E+02
    -0.61516E+02
    -0.62836E+02
    -0.62812E+02
    -0.64436E+02
    -0.63620E+02
    -0.62857E+02
    -0.65762E+02
    -0.66116E+02
    -0.65597E+02
    -0.66872E+02
    -0.66887E+02
    -0.66294E+02
    -0.66031E+02
    -0.66316E+02
    -0.66892E+02
    -0.62453E+02
    -0.64943E+02
    -0.63409E+02
    -0.64181E+02
    -0.66154E+02
    -0.65523E+02
    -0.66455E+02
    -0.66643E+02
    -0.65842E+02
    -0.67028E+02
    -0.67195E+02
    -0.67398E+02
    -0.66932E+02
    -0.67522E+02
    -0.66764E+02
    -0.66984E+02
    -0.68086E+02
    -0.69421E+02
    -0.63970E+02
    -0.68021E+02
    -0.66114E+02
    -0.65431E+02
    -0.67700E+02
    -0.66234E+02
    -0.65500E+02
    -0.66408E+02
    -0.67344E+02
    -0.67994E+02
    -0.67985E+02
    -0.69495E+02
    -0.69341E+02
    -0.69141E+02
    -0.68574E+02
    -0.68540E+02
    -0.68199E+02
    -0.70052E+02
    -0.62859E+02
    -0.66045E+02
    -0.65669E+02
    -0.65274E+02
    -0.66823E+02
    -0.65902E+02
    -0.65966E+02
    -0.67457E+02
    -0.68726E+02
    -0.69425E+02
    -0.69469E+02
    -0.70425E+02
    -0.71572E+02
    -0.70291E+02
    -0.68345E+02
    -0.68989E+02
    -0.67685E+02
    -0.70880E+02
    -0.64701E+02
    -0.66904E+02
    -0.67587E+02
    -0.67560E+02
    -0.67802E+02
    -0.67368E+02
    -0.68420E+02
    -0.69974E+02
    -0.69680E+02
    -0.69760E+02
    -0.69994E+02
    -0.69715E+02
    -0.70458E+02
    -0.70454E+02
    -0.68832E+02
    -0.70150E+02
    -0.69500E+02
    -0.71578E+02
    -0.66472E+02
    -0.68546E+02
    -0.69190E+02
    -0.69086E+02
    -0.69086E+02
    -0.69303E+02
    -0.69781E+02
    -0.71311E+02
    -0.70661E+02
    -0.70096E+02
    -0.71161E+02
    -0.70636E+02
    -0.70690E+02
    -0.70901E+02
    -0.71188E+02
    -0.71088E+02
    -0.69307E+02
    -0.70257E+02
    -0.66631E+02
    -0.69329E+02
    -0.69548E+02
    -0.68684E+02
    -0.69588E+02
    -0.69133E+02
    -0.69998E+02
    -0.71199E+02
    -0.71550E+02
    -0.72542E+02
    -0.71857E+02
    -0.69464E+02
    -0.68833E+02
    -0.69475E+02
    -0.69837E+02
    -0.71064E+02
    -0.68704E+02
    -0.70923E+02
    -0.64732E+02
    -0.66637E+02
    -0.66085E+02
    -0.67155E+02
    -0.68403E+02
    -0.69320E+02
    -0.70647E+02
    -0.69304E+02
    -0.69085E+02
    -0.69581E+02
    -0.69772E+02
    -0.68265E+02
    -0.68788E+02
    -0.69094E+02
    -0.68637E+02
    -0.70720E+02
    -0.69821E+02
    -0.69655E+02
    -0.63526E+02
    -0.64570E+02
    -0.64055E+02
    -0.65248E+02
    -0.64564E+02
    -0.64747E+02
    -0.65504E+02
    -0.65023E+02
    -0.66269E+02
    -0.66347E+02
    -0.67987E+02
    -0.67739E+02
    -0.66668E+02
    -0.67853E+02
    -0.66535E+02
    -0.68066E+02
    -0.66515E+02
    -0.65190E+02
    -0.61437E+02
    -0.62980E+02
    -0.61747E+02
    -0.62216E+02
    -0.61369E+02
    -0.60764E+02
    -0.61657E+02
    -0.61544E+02
    -0.62553E+02
    -0.61611E+02
    -0.62108E+02
    -0.62679E+02
    -0.60760E+02
    -0.63485E+02
    -0.62787E+02
    -0.62823E+02
    -0.62256E+02
    -0.61920E+02
    -0.58775E+02
    -0.59477E+02
    -0.57928E+02
    -0.58189E+02
    -0.59443E+02
    -0.58169E+02
    -0.58647E+02
    -0.58454E+02
    -0.59165E+02
    -0.58039E+02
    -0.56638E+02
    -0.59841E+02
    -0.58723E+02
    -0.58005E+02
    -0.58772E+02
    -0.57287E+02
    -0.56572E+02
    -0.58116E+02
    -0.58027E+02
    -0.57248E+02
    -0.57216E+02
    -0.55817E+02
    -0.57541E+02
    -0.55908E+02
    -0.54993E+02
    -0.57227E+02
    -0.54980E+02
    -0.54052E+02
    -0.56501E+02
    -0.55709E+02
    -0.53695E+02
    -0.54840E+02
    -0.55069E+02
    -0.50787E+02
    -0.50721E+02
    -0.57061E+02
    -0.57764E+02
    -0.56183E+02
    -0.56184E+02
    -0.53764E+02
    -0.54172E+02
    -0.55601E+02
    -0.53190E+02
    -0.52802E+02
    -0.54491E+02
    -0.55233E+02
    -0.53382E+02
    -0.51370E+02
    -0.52770E+02
    -0.53134E+02
    -0.49201E+02
    -0.49202E+02
    -0.53847E+02
    -0.55195E+02
    -0.56341E+02
    -0.54816E+02
    -0.54137E+02
    -0.52638E+02
    -0.54707E+02
    -0.50578E+02
    -0.51265E+02
    -0.54289E+02
    -0.54367E+02
    -0.50615E+02
    -0.49685E+02
    -0.52156E+02
    -0.53574E+02
    -0.49915E+02
    -0.48222E+02
    -0.51464E+02
    -0.52621E+02
    -0.52153E+02
    -0.54617E+02
    -0.53688E+02
    -0.54955E+02
    -0.47233E+02
    -0.50347E+02
    -0.52709E+02
    -0.52978E+02
    -0.52630E+02
    -0.48931E+02
    -0.48184E+02
    -0.50997E+02
    -0.52757E+02
    -0.52807E+02
    -0.53509E+02
    -0.52061E+02
    -0.50423E+02
    -0.50677E+02
    -0.50875E+02
    -0.48979E+02
    -0.44782E+02
    -0.49715E+02
    -0.52287E+02
    -0.54146E+02
    -0.51378E+02
    -0.44782E+02
    -0.47337E+02
    -0.48494E+02
    -0.50536E+02
    -0.52519E+02
    -0.52037E+02
    -0.52440E+02
    -0.59401E+02
    -0.56738E+02
    -0.48684E+02
    -0.47800E+02
    -0.47555E+02
    -0.28632E+02
    -0.42392E+02
    -0.46141E+02
    -0.41458E+02
    -0.43842E+02
    -0.45288E+02
    -0.44098E+02
    -0.47507E+02
    -0.50527E+02
    -0.52269E+02
    -0.52576E+02
    -0.50835E+02
    -0.50399E+02
    -0.59720E+02
    -0.58076E+02
    -0.47823E+02
    -0.45596E+02
    -0.45400E+02
     0.40204E+02
     0.12413E+02
    -0.15290E+01
    -0.12377E+02
    -0.26467E+02
    -0.37162E+02
    -0.43977E+02
    -0.47448E+02
    -0.49191E+02
    -0.50240E+02
    -0.49294E+02
    -0.47242E+02
    -0.46153E+02
    -0.48879E+02
    -0.54188E+02
    -0.50083E+02
    -0.44719E+02
    -0.45105E+02
     0.15602E+03
     0.12057E+03
     0.86546E+02
     0.51689E+02
     0.21141E+02
     0.33983E+00
    -0.13018E+02
    -0.21144E+02
    -0.26163E+02
    -0.28770E+02
    -0.30007E+02
    -0.32840E+02
    -0.36152E+02
    -0.36785E+02
    -0.42647E+02
    -0.46361E+02
    -0.44238E+02
    -0.43581E+02
     0.31154E+03
     0.27920E+03
     0.24654E+03
     0.21155E+03
     0.17452E+03
     0.13850E+03
     0.10846E+03
     0.82712E+02
     0.61667E+02
     0.44335E+02
     0.31913E+02
     0.18099E+02
     0.18255E+01
    -0.91491E+01
    -0.19084E+02
    -0.26363E+02
    -0.29331E+02
    -0.32817E+02
     0.51540E+03
     0.48113E+03
     0.44510E+03
     0.41042E+03
     0.37300E+03
     0.33272E+03
     0.29613E+03
     0.26065E+03
     0.22930E+03
     0.19923E+03
     0.17049E+03
     0.14266E+03
     0.11611E+03
     0.88315E+02
     0.62942E+02
     0.43337E+02
     0.24735E+02
     0.56331E+01
     0.70737E+03
     0.67356E+03
     0.63539E+03
     0.59833E+03
     0.55951E+03
     0.52193E+03
     0.48639E+03
     0.44904E+03
     0.41668E+03
     0.37889E+03
     0.34323E+03
     0.31572E+03
     0.29072E+03
     0.25823E+03
     0.23037E+03
     0.20968E+03
     0.18699E+03
     0.15861E+03
     0.87865E+03
     0.84676E+03
     0.81276E+03
     0.77930E+03
     0.74446E+03
     0.70993E+03
     0.67447E+03
     0.63357E+03
     0.59344E+03
     0.55357E+03
     0.51682E+03
     0.48400E+03
     0.45395E+03
     0.42445E+03
     0.39541E+03
     0.36792E+03
     0.34199E+03
     0.31775E+03
    -0.40294E+02
    -0.21761E+02
    -0.47671E+02
    -0.22494E+02
    -0.26308E+02
    -0.15032E+02
    -0.60367E+02
    -0.60795E+02
    -0.57811E+02
    -0.60291E+02
    -0.58927E+02
    -0.59541E+02
    -0.56619E+02
    -0.59489E+02
    -0.58235E+02
    -0.56801E+02
    -0.53607E+02
    -0.56571E+02
    -0.53274E+02
    -0.55200E+02
    -0.50784E+02
    -0.54963E+02
    -0.60293E+02
    -0.71157E+02
    -0.52344E+02
    -0.56208E+02
    -0.65848E+02
    -0.65886E+02
    -0.56887E+02
    -0.56196E+02
    -0.52031E+02
    -0.54053E+02
    -0.51828E+02
    -0.56842E+02
    -0.18537E+02
    -0.24777E+02
    -0.28633E+02
    -0.36828E+02
    -0.24196E+02
    -0.29761E+02
    -0.19500E+02
    -0.29996E+02
    -0.29959E+02
    -0.43267E+02
    -0.42908E+02
    -0.50804E+02
    -0.41955E+02
    -0.48640E+02
    -0.45117E+02
    -0.51944E+02
    -0.52653E+02
    -0.56807E+02
    -0.36230E+02
    -0.48851E+02
    -0.36945E+02
    -0.46438E+02
    -0.39809E+02
    -0.46760E+02
    -0.43736E+02
    -0.50940E+02
    -0.48599E+02
    -0.55511E+02
    -0.50304E+02
    -0.56018E+02
    -0.49949E+02
    -0.54546E+02
    -0.53742E+02
    -0.56148E+02
    -0.54621E+02
    -0.56128E+02
    -0.51363E+02
    -0.47385E+02
    -0.41130E+02
    -0.39855E+02
    -0.36703E+02
    -0.36591E+02
    -0.34362E+02
    -0.34605E+02
    -0.32838E+02
    -0.33560E+02
    -0.31936E+02
    -0.32485E+02
    -0.31094E+02
    -0.32001E+02
    -0.30490E+02
    -0.31511E+02
    -0.30029E+02
    -0.31067E+02
    -0.29786E+02
    -0.31231E+02
    -0.30046E+02
    -0.31270E+02
    -0.30053E+02
    -0.31409E+02
    -0.30663E+02
    -0.32526E+02
    -0.32084E+02
    -0.34983E+02
    -0.35843E+02
    -0.42467E+02
    -0.53229E+02
    -0.53791E+02
    -0.46269E+02
    -0.45929E+02
    -0.49759E+02
    -0.48599E+02
    -0.44394E+02
    -0.48410E+02
    -0.43849E+02
    -0.50430E+02
    -0.44922E+02
    -0.53806E+02
    -0.46503E+02
    -0.51839E+02
    -0.48768E+02
    -0.43722E+02
    -0.40232E+02
    -0.42030E+02
    -0.37699E+02
    -0.40786E+02
    -0.36959E+02
    -0.41195E+02
    -0.36324E+02
    -0.43225E+02
    -0.37312E+02
    -0.44440E+02
    -0.39437E+02
    -0.18786E+02
    -0.22158E+02
    -0.25800E+02
    -0.21066E+02
    -0.28658E+02
    -0.23950E+02
    -0.31755E+02
    -0.26259E+02
    -0.35507E+02
    -0.29807E+02
    -0.38940E+02
    -0.33648E+02
    -0.40640E+02
    -0.35977E+02
    -0.44795E+02
    -0.37920E+02
    -0.46653E+02
    -0.41056E+02
    -0.24888E+02
    -0.23878E+02
    -0.21795E+02
    -0.22098E+02
    -0.18494E+02
    -0.19479E+02
    -0.17841E+02
    -0.17420E+02
    -0.22626E+02
    -0.19233E+02
    -0.28119E+02
    -0.23056E+02
    -0.30688E+02
    -0.26227E+02
    -0.35301E+02
    -0.28938E+02
    -0.40821E+02
    -0.32522E+02
    -0.32844E+02
    -0.33521E+02
    -0.29901E+02
    -0.29976E+02
    -0.28567E+02
    -0.27969E+02
    -0.28081E+02
    -0.27513E+02
    -0.27695E+02
    -0.27058E+02
    -0.27525E+02
    -0.26694E+02
    -0.27822E+02
    -0.26943E+02
    -0.28275E+02
    -0.27239E+02
    -0.29129E+02
    -0.27974E+02
    -0.29957E+02
    -0.28675E+02
    -0.30966E+02
    -0.29629E+02
    -0.32365E+02
    -0.30795E+02
    -0.34606E+02
    -0.32451E+02
    -0.37978E+02
    -0.35004E+02
    -0.39265E+02
    -0.44647E+02
    -0.37286E+02
    -0.48623E+02
    -0.44360E+02
    -0.22787E+02
    -0.23449E+02
    -0.17444E+02
    -0.16087E+02
    -0.37921E+02
    -0.36529E+02
    -0.19475E+02
    -0.18411E+02
    -0.20606E+02
    -0.19839E+02
    -0.20088E+02
    -0.17876E+02
    -0.37474E+02
    -0.35501E+02
    -0.37810E+02
    -0.35362E+02
    -0.38604E+02
    -0.35718E+02
    -0.40511E+02
    -0.36656E+02
    -0.30726E+02
    -0.31718E+02
    -0.30827E+02
    -0.29336E+02
    -0.30368E+02
    -0.28732E+02
    -0.30443E+02
    -0.28480E+02
    -0.32544E+02
    -0.28779E+02
    -0.16541E+02
    -0.16532E+02
    -0.17955E+02
    -0.16882E+02
    -0.20407E+02
    -0.18690E+02
    -0.21709E+02
    -0.22526E+02
    -0.20569E+02