# vtk DataFile Version 3.14.1
BMesh by KP LIAO
ASCII
DATASET UNSTRUCTURED_GRID
POINTS 	      8150 	FLOAT
    5.19548 	   2.72304 	   4.21079
    5.19542 	   2.59615 	   4.10039
    5.19536 	   2.52820 	   3.99629
    5.19525 	   2.49989 	   3.81499
    5.54625 	   2.49989 	   3.81068
    5.54648 	   2.81754 	   4.21054
    5.19536 	   2.47174 	   3.99632
    5.19542 	   2.40388 	   4.10047
    5.19548 	   2.27707 	   4.21097
    5.54648 	   2.18258 	   4.21081
    6.24848 	   2.82672 	   4.21013
    6.24825 	   2.49989 	   3.81026
    6.24848 	   2.17339 	   4.21040
    7.88625 	   2.49989 	   3.80930
    7.88648 	   2.17339 	   4.20944
    7.88648 	   2.82672 	   4.20917
    9.29048 	   2.82672 	   4.20835
    9.29025 	   2.49989 	   3.80848
    9.29048 	   2.17339 	   4.20862
    9.65296 	   2.49993 	   3.88627
    9.65296 	   2.49326 	   3.88366
    9.58280 	   2.49327 	   3.90476
    9.60064 	   2.49995 	   3.95497
    9.58283 	   2.48822 	   3.95498
    9.55649 	   2.48352 	   3.94830
    9.58276 	   2.49990 	   3.82911
    9.55620 	   2.49990 	   3.82166
    9.52433 	   2.47758 	   3.94273
    9.52425 	   2.49990 	   3.81550
    9.58280 	   2.50660 	   3.90476
    9.65296 	   2.50659 	   3.88365
    9.58283 	   2.51169 	   3.95497
    9.55649 	   2.51638 	   3.94829
    9.52433 	   2.52232 	   3.94271
    9.83315 	   2.82672 	   4.20803
    9.64148 	   2.82672 	   4.20814
    9.83303 	   2.49998 	   4.01083
    9.64135 	   2.49996 	   3.97469
    9.52448 	   2.82672 	   4.20821
    9.64148 	   2.17339 	   4.20841
    9.83315 	   2.17339 	   4.20830
    9.52448 	   2.17339 	   4.20848
    9.42855 	   2.17339 	   4.20853
    9.42855 	   2.82672 	   4.20827
    9.83315 	   2.50006 	   4.20816
    9.65295 	   2.49992 	   3.86227
    9.42831 	   2.49989 	   3.80840
    5.13685 	   2.51692 	   3.99758
    5.13682 	   2.52656 	   3.93784
    5.13676 	   2.49990 	   3.82269
    5.13682 	   2.47333 	   3.93786
    5.13685 	   2.48302 	   3.99759
    5.07833 	   2.47719 	   3.94429
    5.07835 	   2.49079 	   3.98429
    5.07836 	   2.49997 	   3.99762
    5.07835 	   2.50914 	   3.98428
    5.07833 	   2.52271 	   3.94427
    5.06792 	   2.49996 	   3.98429
    5.01983 	   2.52055 	   3.94431
    5.01985 	   2.49996 	   3.98432
    5.01983 	   2.47935 	   3.94433
    5.07826 	   2.49990 	   3.83768
    5.01978 	   2.49991 	   3.86354
    4.94242 	   2.49995 	   3.94436
    5.13698 	   2.69243 	   4.21084
    5.13698 	   2.30768 	   4.21099
    4.93790 	   2.50006 	   4.21103
    5.13691 	   2.57085 	   4.10422
    5.02487 	   2.50001 	   4.10431
    5.13691 	   2.42917 	   4.10428
    5.21392 	   2.73148 	   4.21028
    5.23254 	   2.73951 	   4.21001
    5.25134 	   2.74713 	   4.20997
    5.27029 	   2.75434 	   4.21012
    5.28940 	   2.76113 	   4.21038
    5.30865 	   2.76751 	   4.21065
    5.32804 	   2.77347 	   4.21087
    5.34754 	   2.77904 	   4.21099
    5.36714 	   2.78423 	   4.21100
    5.38684 	   2.78908 	   4.21092
    5.40660 	   2.79362 	   4.21079
    5.42643 	   2.79787 	   4.21064
    5.44632 	   2.80185 	   4.21052
    5.46626 	   2.80557 	   4.21044
    5.48624 	   2.80901 	   4.21041
    5.50628 	   2.81216 	   4.21042
    5.52636 	   2.81501 	   4.21047
    5.19548 	   2.70809 	   4.19956
    5.19547 	   2.69337 	   4.18802
    5.19546 	   2.67891 	   4.17614
    5.19546 	   2.66468 	   4.16400
    5.19545 	   2.65062 	   4.15166
    5.19544 	   2.63669 	   4.13918
    5.19543 	   2.62297 	   4.12647
    5.19543 	   2.60947 	   4.11352
    5.19541 	   2.58337 	   4.08751
    5.19540 	   2.57073 	   4.07448
    5.19540 	   2.55860 	   4.06099
    5.19539 	   2.54767 	   4.04651
    5.19538 	   2.53844 	   4.03090
    5.19537 	   2.53171 	   4.01407
    5.19535 	   2.52750 	   3.97666
    5.19533 	   2.52892 	   3.95705
    5.19532 	   2.53175 	   3.93759
    5.19531 	   2.53463 	   3.91813
    5.19530 	   2.53633 	   3.89856
    5.19529 	   2.53555 	   3.87891
    5.19528 	   2.53253 	   3.85950
    5.19527 	   2.52656 	   3.84079
    5.19526 	   2.51673 	   3.82382
    5.52674 	   2.49989 	   3.81058
    5.50723 	   2.49989 	   3.81051
    5.48772 	   2.49989 	   3.81048
    5.46821 	   2.49989 	   3.81051
    5.44870 	   2.49989 	   3.81060
    5.42919 	   2.49989 	   3.81074
    5.40968 	   2.49989 	   3.81092
    5.39017 	   2.49989 	   3.81108
    5.37066 	   2.49989 	   3.81117
    5.35116 	   2.49989 	   3.81116
    5.33165 	   2.49989 	   3.81103
    5.31214 	   2.49989 	   3.81081
    5.29263 	   2.49989 	   3.81060
    5.27312 	   2.49989 	   3.81056
    5.25361 	   2.49989 	   3.81085
    5.23412 	   2.49989 	   3.81164
    5.21466 	   2.49989 	   3.81301
    5.54647 	   2.80944 	   4.19233
    5.54646 	   2.79965 	   4.17497
    5.54645 	   2.78828 	   4.15860
    5.54644 	   2.77594 	   4.14294
    5.54643 	   2.76289 	   4.12786
    5.54643 	   2.74936 	   4.11323
    5.54642 	   2.73547 	   4.09891
    5.54641 	   2.72133 	   4.08486
    5.54640 	   2.70692 	   4.07108
    5.54639 	   2.69261 	   4.05720
    5.54638 	   2.67876 	   4.04286
    5.54638 	   2.66538 	   4.02807
    5.54637 	   2.65242 	   4.01292
    5.54636 	   2.63993 	   3.99738
    5.54635 	   2.62786 	   3.98151
    5.54634 	   2.61594 	   3.96553
    5.54633 	   2.60401 	   3.94955
    5.54632 	   2.59211 	   3.93355
    5.54631 	   2.58021 	   3.91755
    5.54630 	   2.56859 	   3.90135
    5.54629 	   2.55781 	   3.88459
    5.54628 	   2.54865 	   3.86689
    5.54627 	   2.54146 	   3.84830
    5.54626 	   2.53245 	   3.83058
    5.54625 	   2.51853 	   3.81646
    5.19535 	   2.47243 	   3.97668
    5.19533 	   2.47098 	   3.95707
    5.19532 	   2.46814 	   3.93761
    5.19531 	   2.46525 	   3.91816
    5.19530 	   2.46353 	   3.89859
    5.19529 	   2.46429 	   3.87894
    5.19528 	   2.46730 	   3.85952
    5.19527 	   2.47325 	   3.84081
    5.19526 	   2.48307 	   3.82384
    5.19541 	   2.41665 	   4.08758
    5.19540 	   2.42928 	   4.07454
    5.19540 	   2.44139 	   4.06104
    5.19539 	   2.45231 	   4.04655
    5.19538 	   2.46153 	   4.03093
    5.19537 	   2.46824 	   4.01410
    5.19548 	   2.29202 	   4.19973
    5.19547 	   2.30673 	   4.18818
    5.19546 	   2.32117 	   4.17629
    5.19546 	   2.33539 	   4.16414
    5.19545 	   2.34944 	   4.15179
    5.19544 	   2.36336 	   4.13929
    5.19543 	   2.37707 	   4.12657
    5.19543 	   2.39056 	   4.11361
    5.21392 	   2.26864 	   4.21047
    5.23254 	   2.26061 	   4.21021
    5.25134 	   2.25299 	   4.21018
    5.27029 	   2.24578 	   4.21033
    5.28940 	   2.23898 	   4.21059
    5.30865 	   2.23261 	   4.21087
    5.32804 	   2.22664 	   4.21110
    5.34754 	   2.22108 	   4.21122
    5.36714 	   2.21589 	   4.21123
    5.38684 	   2.21104 	   4.21116
    5.40660 	   2.20650 	   4.21103
    5.42643 	   2.20225 	   4.21089
    5.44632 	   2.19827 	   4.21077
    5.46626 	   2.19455 	   4.21069
    5.48624 	   2.19111 	   4.21066
    5.50628 	   2.18795 	   4.21068
    5.52636 	   2.18511 	   4.21073
    5.54647 	   2.19066 	   4.19259
    5.54646 	   2.20044 	   4.17522
    5.54645 	   2.21179 	   4.15883
    5.54644 	   2.22412 	   4.14317
    5.54643 	   2.23716 	   4.12808
    5.54643 	   2.25068 	   4.11343
    5.54642 	   2.26455 	   4.09911
    5.54641 	   2.27869 	   4.08505
    5.54640 	   2.29308 	   4.07125
    5.54639 	   2.30738 	   4.05736
    5.54638 	   2.32122 	   4.04301
    5.54638 	   2.33458 	   4.02821
    5.54637 	   2.34753 	   4.01305
    5.54636 	   2.36001 	   3.99750
    5.54635 	   2.37207 	   3.98162
    5.54634 	   2.38398 	   3.96563
    5.54633 	   2.39589 	   3.94964
    5.54632 	   2.40778 	   3.93363
    5.54631 	   2.41966 	   3.91762
    5.54630 	   2.43127 	   3.90141
    5.54629 	   2.44204 	   3.88463
    5.54628 	   2.45119 	   3.86693
    5.54627 	   2.45836 	   3.84833
    5.54626 	   2.46735 	   3.83061
    5.54625 	   2.48126 	   3.81648
    5.19548 	   2.30331 	   4.21096
    5.19548 	   2.32954 	   4.21095
    5.19548 	   2.35577 	   4.21094
    5.19548 	   2.38201 	   4.21093
    5.19548 	   2.40824 	   4.21092
    5.19548 	   2.43447 	   4.21091
    5.19548 	   2.46071 	   4.21090
    5.19548 	   2.48694 	   4.21089
    5.19548 	   2.51318 	   4.21088
    5.19548 	   2.53941 	   4.21087
    5.19548 	   2.56564 	   4.21085
    5.19548 	   2.59188 	   4.21084
    5.19548 	   2.61811 	   4.21083
    5.19548 	   2.64434 	   4.21082
    5.19548 	   2.67058 	   4.21081
    5.19548 	   2.69681 	   4.21080
    5.54648 	   2.24607 	   4.21078
    5.54648 	   2.30957 	   4.21075
    5.54648 	   2.37307 	   4.21073
    5.54648 	   2.43656 	   4.21070
    5.54648 	   2.50006 	   4.21068
    5.54648 	   2.56355 	   4.21065
    5.54648 	   2.62705 	   4.21062
    5.54648 	   2.69055 	   4.21060
    5.54648 	   2.75404 	   4.21057
    6.24847 	   2.82672 	   4.18678
    6.24846 	   2.82671 	   4.16344
    6.24844 	   2.82670 	   4.14009
    6.24843 	   2.82669 	   4.11675
    6.24841 	   2.82668 	   4.09340
    6.24840 	   2.82637 	   4.07006
    6.24839 	   2.82464 	   4.04679
    6.24837 	   2.82063 	   4.02380
    6.24836 	   2.81368 	   4.00154
    6.24835 	   2.80338 	   3.98061
    6.24834 	   2.79063 	   3.96107
    6.24833 	   2.77635 	   3.94261
    6.24832 	   2.76103 	   3.92500
    6.24831 	   2.74514 	   3.90789
    6.24830 	   2.72900 	   3.89103
    6.24829 	   2.71263 	   3.87438
    6.24828 	   2.69600 	   3.85800
    6.24827 	   2.67875 	   3.84227
    6.24826 	   2.66001 	   3.82837
    6.24825 	   2.63911 	   3.81807
    6.24825 	   2.61652 	   3.81234
    6.24825 	   2.59327 	   3.81037
    6.24825 	   2.56993 	   3.81024
    6.24825 	   2.54658 	   3.81024
    6.24825 	   2.52324 	   3.81025
    5.58530 	   2.82147 	   4.21068
    5.62422 	   2.82420 	   4.21077
    5.66321 	   2.82587 	   4.21078
    5.70222 	   2.82669 	   4.21070
    5.74124 	   2.82689 	   4.21057
    5.78025 	   2.82673 	   4.21040
    5.81927 	   2.82641 	   4.21025
[...]
CELL_DATA 	      9403
SCALARS 	cell_scalars 	FLOAT 	         1
LOOKUP_TABLE 	DEFAULT
    -0.41584E+02
    -0.26827E+02
    -0.24004E+02
    -0.43453E+02
    -0.35049E+02
    -0.33912E+02
    -0.48534E+02
    -0.43965E+02
    -0.37874E+02
    -0.46468E+02
    -0.50589E+02
    -0.43835E+02
    -0.34633E+02
    -0.40006E+02
    -0.47267E+02
    -0.49604E+02
    -0.43198E+02
    -0.32908E+02
    -0.55946E+02
    -0.57992E+02
    -0.54996E+02
    -0.59896E+02
    -0.60380E+02
    -0.58389E+02
    -0.62639E+02
    -0.61961E+02
    -0.59679E+02
    -0.62326E+02
    -0.64055E+02
    -0.60547E+02
    -0.57630E+02
    -0.58266E+02
    -0.60437E+02
    -0.58997E+02
    -0.56750E+02
    -0.54044E+02
    -0.64805E+02
    -0.65241E+02
    -0.64857E+02
    -0.65545E+02
    -0.65767E+02
    -0.65238E+02
    -0.66104E+02
    -0.65704E+02
    -0.65043E+02
    -0.66209E+02
    -0.67084E+02
    -0.65121E+02
    -0.66080E+02
    -0.67932E+02
    -0.65565E+02
    -0.62802E+02
    -0.63722E+02
    -0.65418E+02
    -0.69380E+02
    -0.71166E+02
    -0.71535E+02
    -0.70843E+02
    -0.71195E+02
    -0.69737E+02
    -0.70058E+02
    -0.69644E+02
    -0.67918E+02
    -0.68014E+02
    -0.68976E+02
    -0.66525E+02
    -0.66379E+02
    -0.68095E+02
    -0.66598E+02
    -0.65302E+02
    -0.67947E+02
    -0.66951E+02
    -0.68250E+02
    -0.70155E+02
    -0.70963E+02
    -0.71790E+02
    -0.73003E+02
    -0.71067E+02
    -0.72401E+02
    -0.72594E+02
    -0.70980E+02
    -0.70934E+02
    -0.71136E+02
    -0.68971E+02
    -0.67908E+02
    -0.69410E+02
    -0.68459E+02
    -0.68159E+02
    -0.69557E+02
    -0.68195E+02
    -0.70685E+02
    -0.71493E+02
    -0.71506E+02
    -0.71918E+02
    -0.72365E+02
    -0.71651E+02
    -0.71983E+02
    -0.71539E+02
    -0.71964E+02
    -0.72825E+02
    -0.71848E+02
    -0.71020E+02
    -0.70783E+02
    -0.71208E+02
    -0.69893E+02
    -0.70862E+02
    -0.71878E+02
    -0.69115E+02
    -0.71511E+02
    -0.72402E+02
    -0.73354E+02
    -0.72779E+02
    -0.74043E+02
    -0.73035E+02
    -0.71832E+02
    -0.72059E+02
    -0.72341E+02
    -0.72571E+02
    -0.71852E+02
    -0.71276E+02
    -0.70488E+02
    -0.70909E+02
    -0.70360E+02
    -0.70214E+02
    -0.70727E+02
    -0.68750E+02
    -0.70228E+02
    -0.71804E+02
    -0.72940E+02
    -0.72017E+02
    -0.73081E+02
    -0.72496E+02
    -0.71682E+02
    -0.73085E+02
    -0.73316E+02
    -0.74267E+02
    -0.73946E+02
    -0.72422E+02
    -0.71300E+02
    -0.71739E+02
    -0.71901E+02
    -0.71051E+02
    -0.69761E+02
    -0.68110E+02
    -0.71129E+02
    -0.72228E+02
    -0.72761E+02
    -0.71626E+02
    -0.72117E+02
    -0.72043E+02
    -0.71734E+02
    -0.72568E+02
    -0.72654E+02
    -0.74610E+02
    -0.75083E+02
    -0.73219E+02
    -0.74101E+02
    -0.74133E+02
    -0.72578E+02
    -0.71266E+02
    -0.69957E+02
    -0.68298E+02
    -0.70850E+02
    -0.70702E+02
    -0.72995E+02
    -0.72671E+02
    -0.72770E+02
    -0.73943E+02
    -0.72722E+02
    -0.72926E+02
    -0.72606E+02
    -0.72314E+02
    -0.72756E+02
    -0.71987E+02
    -0.71895E+02
    -0.71721E+02
    -0.70700E+02
    -0.71386E+02
    -0.71398E+02
    -0.68864E+02
    -0.68173E+02
    -0.68078E+02
    -0.69140E+02
    -0.69144E+02
    -0.69617E+02
    -0.71772E+02
    -0.71250E+02
    -0.71524E+02
    -0.71246E+02
    -0.69706E+02
    -0.71239E+02
    -0.71961E+02
    -0.68271E+02
    -0.66023E+02
    -0.65207E+02
    -0.65265E+02
    -0.64650E+02
    -0.62729E+02
    -0.66245E+02
    -0.66305E+02
    -0.64501E+02
    -0.65690E+02
    -0.65116E+02
    -0.64906E+02
    -0.64832E+02
    -0.64039E+02
    -0.62234E+02
    -0.60989E+02
    -0.61845E+02
    -0.61923E+02
    -0.57338E+02
    -0.57014E+02
    -0.56290E+02
    -0.51946E+02
    -0.49877E+02
    -0.49536E+02
    -0.57746E+02
    -0.54587E+02
    -0.52186E+02
    -0.54597E+02
    -0.50152E+02
    -0.50317E+02
    -0.52304E+02
    -0.47278E+02
    -0.44718E+02
    -0.46122E+02
    -0.42949E+02
    -0.38895E+02
    -0.38628E+02
    -0.34788E+02
    -0.25146E+02
    -0.18063E+02
    -0.11711E+02
    -0.19733E+01
    -0.37702E+02
    -0.32467E+02
    -0.18025E+02
    -0.21252E+02
    -0.20344E+02
    -0.13484E+02
    -0.11403E+02
    -0.10219E+02
    -0.62966E+01
     0.45860E+01
     0.14990E+02
     0.14405E+02
     0.24211E+02
     0.41087E+02
     0.43235E+02
     0.57285E+02
     0.73547E+02
     0.84521E+02
     0.53099E+02
     0.60688E+02
     0.45533E+02
     0.61179E+02
     0.82390E+02
     0.66062E+02
     0.67960E+02
     0.95249E+02
     0.93303E+02
     0.92045E+02
     0.11596E+03
     0.13046E+03
     0.13910E+03
     0.15329E+03
     0.17233E+03
     0.18947E+03
     0.19606E+03
     0.21346E+03
     0.18425E+03
     0.20390E+03
     0.19707E+03
     0.19085E+03
     0.21167E+03
     0.22831E+03
     0.21782E+03
     0.21854E+03
     0.24397E+03
     0.25547E+03
     0.25747E+03
     0.26837E+03
     0.28726E+03
     0.30532E+03
     0.31727E+03
     0.32707E+03
     0.34475E+03
     0.36320E+03
     0.34194E+03
     0.37125E+03
     0.38325E+03
     0.36495E+03
     0.36928E+03
     0.39263E+03
     0.40335E+03
     0.39440E+03
     0.39444E+03
     0.41557E+03
     0.43271E+03
     0.43548E+03
     0.44034E+03
     0.45684E+03
     0.47099E+03
     0.48423E+03
     0.49695E+03
     0.50649E+03
     0.52567E+03
     0.54858E+03
     0.56751E+03
     0.55262E+03
     0.54753E+03
     0.56544E+03
     0.57864E+03
     0.58259E+03
     0.57638E+03
     0.57553E+03
     0.58708E+03
     0.60267E+03
     0.61234E+03
     0.61627E+03
     0.62400E+03
     0.63447E+03
     0.64635E+03
     0.65961E+03
     0.71184E+03
     0.73414E+03
     0.74793E+03
     0.73879E+03
     0.73419E+03
     0.74168E+03
     0.74951E+03
     0.75515E+03
     0.75552E+03
     0.75785E+03
     0.75691E+03
     0.76095E+03
     0.77153E+03
     0.77748E+03
     0.78812E+03
     0.79565E+03
     0.80125E+03
     0.81136E+03
     0.89771E+03
     0.91665E+03
     0.92680E+03
     0.91877E+03
     0.91515E+03
     0.92112E+03
     0.92392E+03
     0.92443E+03
     0.92702E+03
     0.92929E+03
     0.92983E+03
     0.93324E+03
     0.93618E+03
     0.93767E+03
     0.94600E+03
     0.95358E+03
     0.95727E+03
     0.96296E+03
     0.10809E+04
     0.10988E+04
     0.11089E+04
     0.10975E+04
     0.10928E+04
     0.10988E+04
     0.11009E+04
     0.11002E+04
     0.11000E+04
     0.11002E+04
     0.11004E+04
     0.11009E+04
     0.11018E+04
     0.11060E+04
     0.11142E+04
     0.11188E+04
     0.11198E+04
     0.11240E+04
     0.12624E+04
     0.12795E+04
     0.12912E+04
     0.12845E+04
     0.12779E+04
     0.12775E+04
     0.12775E+04
     0.12772E+04
     0.12768E+04
     0.12780E+04
     0.12795E+04
     0.12797E+04
     0.12799E+04
     0.12823E+04
     0.12863E+04
     0.12879E+04
     0.12870E+04
     0.12884E+04
     0.14422E+04
     0.14569E+04
     0.14665E+04
     0.14691E+04
     0.14658E+04
     0.14598E+04
     0.14560E+04
     0.14546E+04
     0.14542E+04
     0.14556E+04
     0.14581E+04
     0.14598E+04
     0.14612E+04
     0.14622E+04
     0.14631E+04
     0.14646E+04
     0.14641E+04
     0.14641E+04
     0.16205E+04
     0.16320E+04
     0.16398E+04
     0.16438E+04
     0.16436E+04
     0.16406E+04
     0.16367E+04
     0.16336E+04
     0.16314E+04
     0.16303E+04
     0.16310E+04
     0.16317E+04
     0.16318E+04
     0.16322E+04
     0.16332E+04
     0.16348E+04
     0.16349E+04
     0.16348E+04
     0.17802E+04
     0.17960E+04
     0.18063E+04
     0.18112E+04
     0.18112E+04
     0.18081E+04
     0.18040E+04
     0.18004E+04
     0.17978E+04
     0.17961E+04
     0.17952E+04
     0.17936E+04
     0.17922E+04
     0.17920E+04
     0.17922E+04
     0.17919E+04
     0.17898E+04
     0.17872E+04
     0.19021E+04
     0.19243E+04
     0.19321E+04
     0.19317E+04
     0.19285E+04
     0.19239E+04
     0.19187E+04
     0.19138E+04
     0.19102E+04
     0.19077E+04
     0.19061E+04
     0.19045E+04
     0.19033E+04
     0.19027E+04
     0.19014E+04
     0.18995E+04
     0.18966E+04
     0.18934E+04
    -0.36005E+02
    -0.46031E+02
    -0.51023E+02
    -0.47457E+02
    -0.40542E+02
    -0.37106E+02
    -0.45840E+02
    -0.52617E+02
    -0.47338E+02
    -0.45553E+02
    -0.51671E+02
    -0.49972E+02
    -0.36728E+02
    -0.38551E+02
    -0.44953E+02
    -0.28845E+02
    -0.31560E+02
    -0.43435E+02
    -0.54279E+02
    -0.56739E+02
    -0.59955E+02
    -0.60621E+02
    -0.57777E+02
    -0.58182E+02
    -0.61134E+02
    -0.64753E+02
    -0.62049E+02
    -0.60168E+02
    -0.62618E+02
    -0.61904E+02
    -0.57940E+02
    -0.60871E+02
    -0.60577E+02
    -0.55752E+02
    -0.58406E+02
    -0.56462E+02
    -0.65447E+02
    -0.62682E+02
    -0.63112E+02
    -0.65449E+02
    -0.66701E+02
    -0.66727E+02
    -0.65873E+02
    -0.66571E+02
    -0.65270E+02
    -0.64824E+02
    -0.65583E+02
    -0.65321E+02
    -0.64597E+02
    -0.65784E+02
    -0.65558E+02
    -0.64772E+02
    -0.65251E+02
    -0.64822E+02
    -0.66982E+02
    -0.67556E+02
    -0.65534E+02
    -0.66722E+02
    -0.68262E+02
    -0.68652E+02
    -0.69065E+02
    -0.69200E+02
    -0.67593E+02
    -0.68123E+02
    -0.69709E+02
    -0.69404E+02
    -0.69137E+02
    -0.71080E+02
    -0.70713E+02
    -0.71448E+02
    -0.71028E+02
    -0.69217E+02
    -0.68050E+02
    -0.69200E+02
    -0.68015E+02
    -0.68808E+02
    -0.70342E+02
    -0.69775E+02
    -0.70515E+02
    -0.71994E+02
    -0.71191E+02
    -0.71010E+02
    -0.72976E+02
    -0.72313E+02
    -0.70722E+02
    -0.72656E+02
    -0.71387E+02
    -0.70746E+02
    -0.69927E+02
    -0.68372E+02
    -0.68040E+02
    -0.71437E+02
    -0.70731E+02
    -0.70211E+02
    -0.71391E+02
    -0.70473E+02
    -0.71499E+02
    -0.72487E+02
    -0.72712E+02
    -0.71690E+02
    -0.71450E+02
    -0.71851E+02
    -0.71568E+02
    -0.72084E+02
    -0.71578E+02
    -0.71386E+02
    -0.71449E+02
    -0.71029E+02
    -0.67939E+02
    -0.70830E+02
    -0.70694E+02
    -0.70571E+02
    -0.70978E+02
    -0.70451E+02
    -0.71752E+02
    -0.72348E+02
    -0.72719E+02
    -0.72357E+02
    -0.71994E+02
    -0.71770E+02
    -0.73033E+02
    -0.73950E+02
    -0.72599E+02
    -0.73322E+02
    -0.72382E+02
    -0.71608E+02
    -0.68989E+02
    -0.70701E+02
    -0.71264E+02
    -0.71923E+02
    -0.71786E+02
    -0.71033E+02
    -0.72207E+02
    -0.74184E+02
    -0.74570E+02
    -0.73348E+02
    -0.73236E+02
    -0.71917E+02
    -0.73372E+02
    -0.73963E+02
    -0.71974E+02
    -0.72947E+02
    -0.71847E+02
    -0.70314E+02
    -0.70176E+02
    -0.71402E+02
    -0.71288E+02
    -0.72426E+02
    -0.74074E+02
    -0.73447E+02
    -0.72804E+02
    -0.74989E+02
    -0.74619E+02
    -0.72673E+02
    -0.72532E+02
    -0.71737E+02
    -0.72127E+02
    -0.71529E+02
    -0.71396E+02
    -0.72805E+02
    -0.72308E+02
    -0.71412E+02
    -0.68809E+02
    -0.71530E+02
    -0.71004E+02
    -0.70365E+02
    -0.71589E+02
    -0.71732E+02
    -0.71941E+02
    -0.72740E+02
    -0.72324E+02
    -0.72635E+02
    -0.72884E+02
    -0.72791E+02
    -0.73185E+02
    -0.71405E+02
    -0.72569E+02
    -0.73013E+02
    -0.70828E+02
    -0.71514E+02
    -0.62607E+02
    -0.64893E+02
    -0.65496E+02
    -0.65342E+02
    -0.66121E+02
    -0.68436E+02
    -0.72078E+02
    -0.71232E+02
    -0.69703E+02
    -0.71213E+02
    -0.71475E+02
    -0.71280E+02
    -0.71592E+02
    -0.69341E+02
    -0.69004E+02
    -0.69083E+02
    -0.68216E+02
    -0.68869E+02
    -0.49726E+02
    -0.50223E+02
    -0.52268E+02
    -0.56604E+02
    -0.57191E+02
    -0.57298E+02
    -0.61745E+02
    -0.61755E+02
    -0.61056E+02
    -0.62279E+02
    -0.64087E+02
    -0.64850E+02
    -0.64769E+02
    -0.64997E+02
    -0.65474E+02
    -0.64479E+02
    -0.66441E+02
    -0.66848E+02
    -0.26080E+01
    -0.12427E+02
    -0.18468E+02
    -0.25400E+02
    -0.34980E+02
    -0.38772E+02
    -0.39131E+02
    -0.43209E+02
    -0.46411E+02
    -0.44907E+02
    -0.47114E+02
    -0.52105E+02
    -0.49974E+02
    -0.49776E+02
    -0.54259E+02
    -0.52355E+02
    -0.54836E+02
    -0.58114E+02
     0.83788E+02
     0.73853E+02
     0.57587E+02
     0.42764E+02
     0.40598E+02
     0.23312E+02
     0.13083E+02
     0.14035E+02
     0.38800E+01
    -0.65506E+01
    -0.99483E+01
    -0.11438E+02
    -0.13200E+02
    -0.19680E+02
    -0.20759E+02
    -0.18186E+02
    -0.32874E+02
    -0.38255E+02
     0.21278E+03
     0.19552E+03
     0.18875E+03
     0.17184E+03
     0.15254E+03
     0.13752E+03
     0.12906E+03
     0.11526E+03
     0.90816E+02
     0.92073E+02
     0.94920E+02
     0.67811E+02
     0.65819E+02
     0.82001E+02
     0.60721E+02
     0.45174E+02
     0.60055E+02
     0.52408E+02
     0.36225E+03
     0.34412E+03
     0.32597E+03
     0.31633E+03
     0.30407E+03
     0.28597E+03
     0.26745E+03
     0.25660E+03
     0.25445E+03
     0.24322E+03
     0.21794E+03
     0.21697E+03
     0.22764E+03
     0.21135E+03
     0.18970E+03
     0.19605E+03
     0.20337E+03
     0.18344E+03
     0.50566E+03
     0.49616E+03
     0.48318E+03
     0.47028E+03
     0.45597E+03
     0.43931E+03
     0.43479E+03
     0.43186E+03
     0.41467E+03
     0.39365E+03
     0.39347E+03
     0.40136E+03
     0.39521E+03
     0.36570E+03
     0.36385E+03
     0.38236E+03
     0.37092E+03
     0.34187E+03
     0.65905E+03
     0.64590E+03
     0.63387E+03
     0.62345E+03
     0.61606E+03
     0.61247E+03
     0.60234E+03
     0.58883E+03
     0.57455E+03
     0.57537E+03
     0.58203E+03
     0.57917E+03
     0.56678E+03
     0.55003E+03
     0.55138E+03
     0.56696E+03
     0.54823E+03
     0.52558E+03
     0.81076E+03
     0.80079E+03
     0.79514E+03
     0.78745E+03
     0.77666E+03
     0.77075E+03
     0.76028E+03
     0.75324E+03
     0.75661E+03
     0.75509E+03
     0.75520E+03
     0.74962E+03
     0.74213E+03
     0.73378E+03
     0.73758E+03
     0.74745E+03
     0.73391E+03
     0.71177E+03
     0.96231E+03
     0.95645E+03
     0.95273E+03
     0.94557E+03
     0.93680E+03
     0.93526E+03
     0.93269E+03
     0.92896E+03
     0.92840E+03
     0.92649E+03
     0.92403E+03
     0.92321E+03
     0.92061E+03
     0.91478E+03
     0.91767E+03
     0.92603E+03
     0.91665E+03
     0.89794E+03
     0.11235E+04
     0.11191E+04
     0.11179E+04
     0.11136E+04
     0.11051E+04
     0.11008E+04
     0.11002E+04
     0.10997E+04
     0.10995E+04
     0.10992E+04
     0.10993E+04
     0.11003E+04
     0.10988E+04
     0.10926E+04
     0.10960E+04
     0.11076E+04
     0.10989E+04
     0.10809E+04
     0.12880E+04
     0.12863E+04
     0.12871E+04
     0.12856E+04
     0.12812E+04
     0.12786E+04
     0.12787E+04
     0.12790E+04
     0.12777E+04
     0.12766E+04
     0.12768E+04
     0.12770E+04
     0.12770E+04
     0.12773E+04
     0.12832E+04
     0.12904E+04
     0.12795E+04
     0.12623E+04
     0.14636E+04
     0.14635E+04
     0.14642E+04
     0.14627E+04
     0.14614E+04
     0.14601E+04
     0.14589E+04
     0.14577E+04
     0.14556E+04
     0.14541E+04
     0.14544E+04
     0.14555E+04
     0.14588E+04
     0.14650E+04
     0.14685E+04
     0.14663E+04
     0.14566E+04
     0.14418E+04
     0.16345E+04
     0.16346E+04
     0.16344E+04
     0.16326E+04
     0.16313E+04
     0.16304E+04
     0.16301E+04
     0.16300E+04
     0.16297E+04
     0.16309E+04
     0.16331E+04
     0.16363E+04
     0.16399E+04
     0.16430E+04
     0.16432E+04
     0.16393E+04
     0.16315E+04
     0.16198E+04
     0.17869E+04
     0.17895E+04
     0.17914E+04
     0.17914E+04
     0.17910E+04
     0.17911E+04
     0.17925E+04
     0.17943E+04
     0.17954E+04
     0.17971E+04
     0.18000E+04
     0.18038E+04
     0.18079E+04
     0.18111E+04
     0.18112E+04
     0.18064E+04
     0.17963E+04
     0.17802E+04
     0.18933E+04
     0.18966E+04
     0.18994E+04
     0.19013E+04
     0.19025E+04
     0.19031E+04
     0.19043E+04
     0.19059E+04
     0.19076E+04
     0.19101E+04
     0.19138E+04
     0.19187E+04
     0.19239E+04
     0.19285E+04
     0.19316E+04
     0.19320E+04
     0.19242E+04
     0.19020E+04
    -0.20796E+02
    -0.10838E+02
    -0.30962E+02
    -0.14711E+02
    -0.87680E+01
    -0.26052E+02
    -0.33594E+02
    -0.21423E+02
    -0.15837E+02
    -0.13765E+02
     0.18876E+01
    -0.14254E+02
    -0.14499E+02
    -0.40531E+02
    -0.31442E+02
    -0.16595E+02
    -0.11361E+02
    -0.46402E+01
     0.12566E+02
    -0.65384E+01
    -0.88794E+01
    -0.38611E+02
    -0.24985E+02
    -0.24926E+02
    -0.19838E+02
    -0.17312E+02
    -0.11435E+02
    -0.32270E+02
    -0.33383E+02
    -0.50590E+02
    -0.26900E+01
    -0.28437E+02
    -0.30805E+02
    -0.48022E+02
    -0.20353E+02
    -0.34592E+02
    -0.19255E+02
    -0.31354E+02
    -0.14022E+02
    -0.21169E+02
    -0.78712E+01
    -0.16880E+02
    -0.16333E+02
    -0.34657E+02
    -0.32763E+02
    -0.43441E+02
    -0.29171E+02
    -0.37340E+02
    -0.21862E+02
    -0.28204E+02
    -0.20103E+02
    -0.38260E+02
    -0.22766E+02
    -0.37226E+02
    -0.21346E+02
    -0.32566E+02
    -0.15744E+02
    -0.23950E+02
    -0.12662E+02
    -0.22694E+02
    -0.21302E+02
    -0.38188E+02
    -0.35443E+02
    -0.46940E+02
    -0.31766E+02
    -0.39300E+02
    -0.27057E+02
    -0.39559E+02
    -0.38345E+02
    -0.49387E+02
    -0.10050E+02
    -0.10113E+02
    -0.69542E+01
    -0.81589E+01
    -0.75291E+01
    -0.74723E+01
    -0.71507E+01
    -0.83182E+01
    -0.79554E+01
    -0.82163E+01
    -0.80845E+01
    -0.81689E+01
    -0.79640E+01
    -0.84655E+01
    -0.84227E+01
    -0.83583E+01
    -0.73174E+01
    -0.85575E+01
    -0.80078E+01
    -0.82395E+01
    -0.77820E+01
    -0.83372E+01
    -0.90979E+01
    -0.90784E+01
    -0.81739E+01
    -0.79093E+01
    -0.77926E+01
    -0.80831E+01
    -0.64857E+01
    -0.90835E+01
    -0.46294E+02
    -0.41151E+02
    -0.83865E+01
    -0.79311E+01
    -0.78767E+01
    -0.17291E+01
    -0.70218E+01
    -0.59289E+01
    -0.49133E+01
    -0.10017E+02
    -0.91012E+01
    -0.79173E+01
    -0.86401E+01
    -0.19956E+02
    -0.11702E+02
    -0.62581E+01
    -0.69160E+01
     0.17965E+01
    -0.66508E+01
    -0.27019E+01
    -0.34442E+01
    -0.63675E+01
    -0.76101E+01
    -0.26010E+01
    -0.56417E+01
    -0.16595E+02
    -0.88371E+01
    -0.81167E+01
    -0.98168E+01
    -0.10384E+02
    -0.91649E+01
    -0.90746E+01
    -0.88606E+01
    -0.10065E+02
    -0.95705E+01
    -0.13298E+02
    -0.99754E+01
    -0.17865E+02
    -0.13584E+02
    -0.16613E+02
    -0.14766E+02
    -0.17500E+02
    -0.14163E+02
    -0.24868E+02
    -0.16781E+02
    -0.75192E+01
    -0.85360E+01
    -0.98005E+01
    -0.89546E+01
    -0.81170E+01
    -0.87177E+01
    -0.78853E+01
    -0.82672E+01
    -0.11613E+02
    -0.93454E+01
    -0.15508E+02
    -0.11806E+02
    -0.14297E+02
    -0.12557E+02
    -0.13543E+02
    -0.12411E+02
    -0.14399E+02
    -0.11633E+02
    -0.77817E+01
    -0.76510E+01
    -0.65001E+01
    -0.69642E+01
    -0.72855E+01
    -0.68406E+01
    -0.82451E+01
    -0.71286E+01
    -0.63173E+01
    -0.64482E+01
    -0.57120E+01
    -0.62389E+01
    -0.48058E+01
    -0.49234E+01
    -0.63529E+01
    -0.56064E+01
    -0.73584E+01
    -0.57368E+01
    -0.78796E+01
    -0.81224E+01
    -0.65791E+01
    -0.68077E+01
    -0.66539E+01
    -0.69057E+01
    -0.75057E+01
    -0.70261E+01
    -0.81652E+01
    -0.84127E+01
    -0.80229E+01
    -0.25280E+02
    -0.16289E+02
    -0.29464E+02
    -0.20621E+02
    -0.79356E+01
    -0.69228E+01
    -0.81675E+01
    -0.77747E+01
    -0.71008E+01
    -0.71722E+01
    -0.84468E+01
    -0.83205E+01
    -0.81832E+01
    -0.74469E+01
    -0.78484E+01
    -0.75727E+01
    -0.78760E+01
    -0.79874E+01
    -0.87804E+01
    -0.87436E+01
    -0.99753E+01
    -0.91819E+01
    -0.12618E+02
    -0.10734E+02
    -0.72614E+01
    -0.73499E+01
    -0.74992E+01
    -0.72981E+01
    -0.85640E+01
    -0.80377E+01
    -0.92066E+01
    -0.94185E+01
    -0.11259E+02
    -0.99982E+01
    -0.82931E+01
    -0.75155E+01
    -0.86885E+01
    -0.83314E+01
    -0.91620E+01
    -0.86819E+01
    -0.98100E+01
    -0.86407E+01
    -0.79085E+01