# vtk DataFile Version 3.14.1
BMesh by KP LIAO
ASCII
DATASET UNSTRUCTURED_GRID
POINTS 	      8150 	FLOAT
    5.19563 	   2.72305 	   4.21364
    5.19545 	   2.59615 	   4.10325
    5.19529 	   2.52820 	   3.99915
    5.19500 	   2.49989 	   3.81785
    5.54599 	   2.49989 	   3.81319
    5.54662 	   2.81754 	   4.21305
    5.19529 	   2.47174 	   3.99918
    5.19545 	   2.40388 	   4.10333
    5.19563 	   2.27707 	   4.21383
    5.54663 	   2.18258 	   4.21332
    6.24862 	   2.82673 	   4.21194
    6.24799 	   2.49989 	   3.81208
    6.24862 	   2.17339 	   4.21222
    7.88599 	   2.49989 	   3.80949
    7.88662 	   2.17339 	   4.20963
    7.88662 	   2.82673 	   4.20935
    9.29062 	   2.82673 	   4.20714
    9.28999 	   2.49989 	   3.80728
    9.29062 	   2.17339 	   4.20742
    9.65278 	   2.49992 	   3.88471
    9.65277 	   2.49325 	   3.88209
    9.58263 	   2.49326 	   3.90327
    9.60053 	   2.49995 	   3.95346
    9.58271 	   2.48822 	   3.95349
    9.55637 	   2.48352 	   3.94684
    9.58252 	   2.49990 	   3.82762
    9.55596 	   2.49989 	   3.82019
    9.52420 	   2.47757 	   3.94129
    9.52400 	   2.49989 	   3.81407
    9.58263 	   2.50660 	   3.90327
    9.65277 	   2.50659 	   3.88209
    9.58271 	   2.51168 	   3.95348
    9.55637 	   2.51638 	   3.94682
    9.52420 	   2.52232 	   3.94127
    9.83329 	   2.82673 	   4.20628
    9.64162 	   2.82673 	   4.20658
    9.83298 	   2.49998 	   4.00909
    9.64125 	   2.49996 	   3.97314
    9.52462 	   2.82673 	   4.20677
    9.64162 	   2.17339 	   4.20687
    9.83329 	   2.17339 	   4.20656
    9.52462 	   2.17339 	   4.20705
    9.42869 	   2.17339 	   4.20720
    9.42869 	   2.82673 	   4.20692
    9.83329 	   2.50006 	   4.20642
    9.65274 	   2.49991 	   3.86071
    9.42806 	   2.49989 	   3.80706
    5.13678 	   2.51692 	   4.00049
    5.13669 	   2.52656 	   3.94075
    5.13651 	   2.49989 	   3.82560
    5.13669 	   2.47333 	   3.94077
    5.13678 	   2.48302 	   4.00051
    5.07820 	   2.47719 	   3.94727
    5.07827 	   2.49079 	   3.98726
    5.07829 	   2.49997 	   4.00059
    5.07827 	   2.50914 	   3.98725
    5.07820 	   2.52271 	   3.94725
    5.06784 	   2.49996 	   3.98727
    5.01970 	   2.52055 	   3.94734
    5.01977 	   2.49996 	   3.98735
    5.01970 	   2.47935 	   3.94736
    5.07804 	   2.49990 	   3.84066
    5.01958 	   2.49991 	   3.86658
    4.94230 	   2.49995 	   3.94747
    5.13712 	   2.69243 	   4.21375
    5.13712 	   2.30769 	   4.21391
    4.93804 	   2.50006 	   4.21414
    5.13695 	   2.57085 	   4.10713
    5.02491 	   2.50001 	   4.10734
    5.13695 	   2.42917 	   4.10719
    5.21406 	   2.73148 	   4.21311
    5.23268 	   2.73951 	   4.21283
    5.25148 	   2.74713 	   4.21277
    5.27043 	   2.75434 	   4.21290
    5.28954 	   2.76114 	   4.21313
    5.30879 	   2.76751 	   4.21339
    5.32818 	   2.77348 	   4.21359
    5.34768 	   2.77904 	   4.21369
    5.36728 	   2.78423 	   4.21368
    5.38698 	   2.78908 	   4.21358
    5.40674 	   2.79362 	   4.21343
    5.42657 	   2.79787 	   4.21326
    5.44646 	   2.80185 	   4.21312
    5.46640 	   2.80557 	   4.21302
    5.48639 	   2.80901 	   4.21297
    5.50642 	   2.81216 	   4.21297
    5.52650 	   2.81501 	   4.21300
    5.19561 	   2.70809 	   4.20241
    5.19559 	   2.69337 	   4.19087
    5.19557 	   2.67892 	   4.17900
    5.19555 	   2.66469 	   4.16685
    5.19553 	   2.65062 	   4.15452
    5.19551 	   2.63670 	   4.14203
    5.19549 	   2.62297 	   4.12932
    5.19547 	   2.60947 	   4.11637
    5.19543 	   2.58337 	   4.09036
    5.19541 	   2.57073 	   4.07734
    5.19539 	   2.55860 	   4.06384
    5.19537 	   2.54767 	   4.04937
    5.19534 	   2.53844 	   4.03376
    5.19531 	   2.53171 	   4.01693
    5.19526 	   2.52749 	   3.97951
    5.19522 	   2.52892 	   3.95991
    5.19519 	   2.53175 	   3.94044
    5.19516 	   2.53463 	   3.92099
    5.19513 	   2.53632 	   3.90142
    5.19510 	   2.53555 	   3.88177
    5.19507 	   2.53252 	   3.86235
    5.19504 	   2.52656 	   3.84365
    5.19501 	   2.51672 	   3.82668
    5.52648 	   2.49989 	   3.81311
    5.50697 	   2.49989 	   3.81306
    5.48747 	   2.49989 	   3.81305
    5.46796 	   2.49989 	   3.81309
    5.44845 	   2.49989 	   3.81321
    5.42894 	   2.49989 	   3.81337
    5.40943 	   2.49989 	   3.81356
    5.38992 	   2.49989 	   3.81374
    5.37041 	   2.49989 	   3.81386
    5.35090 	   2.49989 	   3.81386
    5.33139 	   2.49989 	   3.81375
    5.31188 	   2.49989 	   3.81355
    5.29237 	   2.49989 	   3.81336
    5.27286 	   2.49989 	   3.81334
    5.25336 	   2.49989 	   3.81365
    5.23387 	   2.49989 	   3.81446
    5.21441 	   2.49989 	   3.81585
    5.54660 	   2.80944 	   4.19484
    5.54657 	   2.79965 	   4.17748
    5.54654 	   2.78828 	   4.16110
    5.54652 	   2.77594 	   4.14544
    5.54649 	   2.76289 	   4.13037
    5.54647 	   2.74936 	   4.11573
    5.54645 	   2.73547 	   4.10142
    5.54643 	   2.72133 	   4.08737
    5.54640 	   2.70692 	   4.07359
    5.54638 	   2.69261 	   4.05970
    5.54636 	   2.67876 	   4.04536
    5.54634 	   2.66538 	   4.03058
    5.54631 	   2.65242 	   4.01543
    5.54629 	   2.63993 	   3.99989
    5.54626 	   2.62786 	   3.98402
    5.54624 	   2.61593 	   3.96804
    5.54621 	   2.60401 	   3.95206
    5.54619 	   2.59211 	   3.93606
    5.54616 	   2.58021 	   3.92006
    5.54614 	   2.56859 	   3.90386
    5.54611 	   2.55781 	   3.88709
    5.54608 	   2.54864 	   3.86940
    5.54605 	   2.54145 	   3.85081
    5.54603 	   2.53245 	   3.83309
    5.54600 	   2.51852 	   3.81897
    5.19526 	   2.47243 	   3.97954
    5.19522 	   2.47098 	   3.95993
    5.19519 	   2.46814 	   3.94047
    5.19516 	   2.46524 	   3.92102
    5.19513 	   2.46353 	   3.90145
    5.19510 	   2.46429 	   3.88180
    5.19507 	   2.46730 	   3.86238
    5.19504 	   2.47324 	   3.84367
    5.19501 	   2.48307 	   3.82670
    5.19543 	   2.41665 	   4.09043
    5.19541 	   2.42928 	   4.07740
    5.19539 	   2.44139 	   4.06389
    5.19537 	   2.45231 	   4.04941
    5.19534 	   2.46153 	   4.03379
    5.19531 	   2.46824 	   4.01696
    5.19561 	   2.29202 	   4.20259
    5.19559 	   2.30673 	   4.19104
    5.19557 	   2.32118 	   4.17915
    5.19555 	   2.33539 	   4.16700
    5.19553 	   2.34945 	   4.15465
    5.19551 	   2.36336 	   4.14215
    5.19549 	   2.37708 	   4.12943
    5.19547 	   2.39056 	   4.11647
    5.21406 	   2.26864 	   4.21331
    5.23269 	   2.26061 	   4.21304
    5.25148 	   2.25299 	   4.21298
    5.27043 	   2.24578 	   4.21312
    5.28954 	   2.23898 	   4.21336
    5.30879 	   2.23261 	   4.21362
    5.32818 	   2.22665 	   4.21383
    5.34768 	   2.22108 	   4.21393
    5.36728 	   2.21589 	   4.21393
    5.38698 	   2.21104 	   4.21383
    5.40674 	   2.20650 	   4.21368
    5.42658 	   2.20225 	   4.21352
    5.44646 	   2.19827 	   4.21338
    5.46640 	   2.19455 	   4.21328
    5.48639 	   2.19111 	   4.21324
    5.50642 	   2.18796 	   4.21324
    5.52650 	   2.18511 	   4.21327
    5.54660 	   2.19067 	   4.19510
    5.54657 	   2.20044 	   4.17773
    5.54654 	   2.21179 	   4.16135
    5.54652 	   2.22412 	   4.14568
    5.54649 	   2.23716 	   4.13059
    5.54647 	   2.25068 	   4.11594
    5.54645 	   2.26455 	   4.10162
    5.54643 	   2.27869 	   4.08756
    5.54640 	   2.29308 	   4.07377
    5.54638 	   2.30738 	   4.05987
    5.54636 	   2.32122 	   4.04552
    5.54634 	   2.33458 	   4.03072
    5.54631 	   2.34753 	   4.01556
    5.54629 	   2.36001 	   4.00001
    5.54626 	   2.37207 	   3.98413
    5.54624 	   2.38398 	   3.96814
    5.54621 	   2.39589 	   3.95215
    5.54619 	   2.40778 	   3.93614
    5.54616 	   2.41966 	   3.92013
    5.54614 	   2.43126 	   3.90392
    5.54611 	   2.44203 	   3.88714
    5.54608 	   2.45118 	   3.86944
    5.54605 	   2.45836 	   3.85084
    5.54603 	   2.46734 	   3.83312
    5.54600 	   2.48126 	   3.81899
    5.19563 	   2.30331 	   4.21382
    5.19563 	   2.32954 	   4.21381
    5.19563 	   2.35578 	   4.21380
    5.19563 	   2.38201 	   4.21379
    5.19563 	   2.40824 	   4.21378
    5.19563 	   2.43448 	   4.21377
    5.19563 	   2.46071 	   4.21376
    5.19563 	   2.48694 	   4.21374
    5.19563 	   2.51318 	   4.21373
    5.19563 	   2.53941 	   4.21372
    5.19563 	   2.56564 	   4.21371
    5.19563 	   2.59188 	   4.21370
    5.19563 	   2.61811 	   4.21369
    5.19563 	   2.64435 	   4.21368
    5.19563 	   2.67058 	   4.21367
    5.19563 	   2.69681 	   4.21365
    5.54663 	   2.24608 	   4.21329
    5.54663 	   2.30957 	   4.21327
    5.54662 	   2.37307 	   4.21324
    5.54662 	   2.43656 	   4.21321
    5.54662 	   2.50006 	   4.21318
    5.54662 	   2.56356 	   4.21316
    5.54662 	   2.62705 	   4.21313
    5.54662 	   2.69055 	   4.21310
    5.54662 	   2.75404 	   4.21308
    6.24859 	   2.82672 	   4.18859
    6.24855 	   2.82671 	   4.16525
    6.24851 	   2.82670 	   4.14190
    6.24848 	   2.82669 	   4.11855
    6.24844 	   2.82668 	   4.09521
    6.24840 	   2.82637 	   4.07187
    6.24837 	   2.82464 	   4.04859
    6.24833 	   2.82063 	   4.02561
    6.24829 	   2.81368 	   4.00334
    6.24826 	   2.80338 	   3.98242
    6.24823 	   2.79063 	   3.96288
    6.24820 	   2.77635 	   3.94441
    6.24817 	   2.76102 	   3.92681
    6.24815 	   2.74514 	   3.90970
    6.24812 	   2.72899 	   3.89284
    6.24809 	   2.71263 	   3.87619
    6.24807 	   2.69599 	   3.85981
    6.24804 	   2.67875 	   3.84408
    6.24802 	   2.66001 	   3.83019
    6.24801 	   2.63910 	   3.81988
    6.24800 	   2.61652 	   3.81415
    6.24799 	   2.59327 	   3.81218
    6.24799 	   2.56992 	   3.81205
    6.24799 	   2.54658 	   3.81206
    6.24799 	   2.52323 	   3.81207
    5.58544 	   2.82147 	   4.21315
    5.62437 	   2.82421 	   4.21320
    5.66335 	   2.82588 	   4.21316
    5.70236 	   2.82669 	   4.21305
    5.74138 	   2.82689 	   4.21288
    5.78040 	   2.82673 	   4.21268
    5.81941 	   2.82642 	   4.21249
[...]
CELL_DATA 	      9403
SCALARS 	cell_scalars 	FLOAT 	         1
LOOKUP_TABLE 	DEFAULT
    -0.52411E+02
    -0.56491E+02
    -0.51791E+02
    -0.53572E+02
    -0.56094E+02
    -0.53870E+02
    -0.55116E+02
    -0.57371E+02
    -0.55176E+02
    -0.52986E+02
    -0.55747E+02
    -0.56105E+02
    -0.51077E+02
    -0.48392E+02
    -0.52521E+02
    -0.54884E+02
    -0.55762E+02
    -0.52254E+02
    -0.57388E+02
    -0.62036E+02
    -0.60704E+02
    -0.60787E+02
    -0.63351E+02
    -0.62104E+02
    -0.63889E+02
    -0.64937E+02
    -0.61909E+02
    -0.61196E+02
    -0.63358E+02
    -0.62682E+02
    -0.59444E+02
    -0.58921E+02
    -0.63788E+02
    -0.62954E+02
    -0.60106E+02
    -0.57547E+02
    -0.68236E+02
    -0.69237E+02
    -0.68526E+02
    -0.68002E+02
    -0.68834E+02
    -0.67559E+02
    -0.67811E+02
    -0.68503E+02
    -0.66538E+02
    -0.67168E+02
    -0.69200E+02
    -0.66761E+02
    -0.65058E+02
    -0.66183E+02
    -0.67555E+02
    -0.65131E+02
    -0.64086E+02
    -0.67326E+02
    -0.70992E+02
    -0.72435E+02
    -0.73109E+02
    -0.72785E+02
    -0.74703E+02
    -0.72170E+02
    -0.71856E+02
    -0.72734E+02
    -0.70550E+02
    -0.71348E+02
    -0.73994E+02
    -0.70104E+02
    -0.67532E+02
    -0.68780E+02
    -0.69133E+02
    -0.68405E+02
    -0.68830E+02
    -0.68369E+02
    -0.71267E+02
    -0.72384E+02
    -0.72771E+02
    -0.72622E+02
    -0.74080E+02
    -0.72517E+02
    -0.72894E+02
    -0.73366E+02
    -0.71919E+02
    -0.73810E+02
    -0.74285E+02
    -0.70828E+02
    -0.69942E+02
    -0.72707E+02
    -0.71332E+02
    -0.70470E+02
    -0.71357E+02
    -0.69683E+02
    -0.73655E+02
    -0.73932E+02
    -0.74653E+02
    -0.74406E+02
    -0.74503E+02
    -0.73519E+02
    -0.72777E+02
    -0.73099E+02
    -0.72314E+02
    -0.73607E+02
    -0.73686E+02
    -0.71860E+02
    -0.72541E+02
    -0.74315E+02
    -0.72402E+02
    -0.73216E+02
    -0.75756E+02
    -0.72009E+02
    -0.73290E+02
    -0.72695E+02
    -0.74357E+02
    -0.74206E+02
    -0.75698E+02
    -0.76740E+02
    -0.74211E+02
    -0.75103E+02
    -0.74955E+02
    -0.74372E+02
    -0.73719E+02
    -0.72402E+02
    -0.72892E+02
    -0.73152E+02
    -0.72026E+02
    -0.72927E+02
    -0.74265E+02
    -0.71422E+02
    -0.72579E+02
    -0.72021E+02
    -0.73997E+02
    -0.73102E+02
    -0.73247E+02
    -0.74339E+02
    -0.72591E+02
    -0.74401E+02
    -0.75177E+02
    -0.75308E+02
    -0.75509E+02
    -0.73581E+02
    -0.73409E+02
    -0.73738E+02
    -0.72824E+02
    -0.73016E+02
    -0.72623E+02
    -0.70612E+02
    -0.72968E+02
    -0.72408E+02
    -0.74157E+02
    -0.75092E+02
    -0.73847E+02
    -0.74122E+02
    -0.73357E+02
    -0.73937E+02
    -0.73637E+02
    -0.74126E+02
    -0.75556E+02
    -0.73491E+02
    -0.73423E+02
    -0.74182E+02
    -0.73076E+02
    -0.72775E+02
    -0.72687E+02
    -0.70640E+02
    -0.71846E+02
    -0.71139E+02
    -0.72065E+02
    -0.73087E+02
    -0.72928E+02
    -0.75192E+02
    -0.74333E+02
    -0.74069E+02
    -0.74570E+02
    -0.73342E+02
    -0.72964E+02
    -0.71852E+02
    -0.70384E+02
    -0.71245E+02
    -0.70184E+02
    -0.69640E+02
    -0.69631E+02
    -0.67713E+02
    -0.68846E+02
    -0.70027E+02
    -0.68662E+02
    -0.68425E+02
    -0.68773E+02
    -0.69796E+02
    -0.69783E+02
    -0.69525E+02
    -0.69919E+02
    -0.69316E+02
    -0.68459E+02
    -0.69452E+02
    -0.67740E+02
    -0.65540E+02
    -0.64517E+02
    -0.62189E+02
    -0.59450E+02
    -0.58058E+02
    -0.62079E+02
    -0.65536E+02
    -0.60353E+02
    -0.60750E+02
    -0.64354E+02
    -0.61183E+02
    -0.61318E+02
    -0.62089E+02
    -0.58001E+02
    -0.57664E+02
    -0.57526E+02
    -0.53906E+02
    -0.50255E+02
    -0.48941E+02
    -0.46225E+02
    -0.40449E+02
    -0.33731E+02
    -0.36029E+02
    -0.42358E+02
    -0.45933E+02
    -0.40590E+02
    -0.37684E+02
    -0.39750E+02
    -0.37216E+02
    -0.39742E+02
    -0.32214E+02
    -0.23163E+02
    -0.26891E+02
    -0.19694E+02
    -0.73587E+01
    -0.10188E+02
    -0.62135E+01
     0.41062E+01
     0.59496E+01
     0.17422E+02
     0.24384E+02
     0.42001E+01
     0.54022E+01
     0.29221E+02
     0.24951E+02
     0.18723E+02
     0.34678E+02
     0.27895E+02
     0.28579E+02
     0.46979E+02
     0.49109E+02
     0.57207E+02
     0.67125E+02
     0.75993E+02
     0.91747E+02
     0.93587E+02
     0.10659E+03
     0.12350E+03
     0.12768E+03
     0.11257E+03
     0.12261E+03
     0.12223E+03
     0.12987E+03
     0.14845E+03
     0.14147E+03
     0.13838E+03
     0.16521E+03
     0.16540E+03
     0.15639E+03
     0.18229E+03
     0.19600E+03
     0.19850E+03
     0.21395E+03
     0.22982E+03
     0.24426E+03
     0.24863E+03
     0.26525E+03
     0.26034E+03
     0.28477E+03
     0.27979E+03
     0.26107E+03
     0.28143E+03
     0.30374E+03
     0.29374E+03
     0.29519E+03
     0.31702E+03
     0.32413E+03
     0.32721E+03
     0.33817E+03
     0.35235E+03
     0.36542E+03
     0.37357E+03
     0.38082E+03
     0.39724E+03
     0.41304E+03
     0.42428E+03
     0.45558E+03
     0.46948E+03
     0.43210E+03
     0.43234E+03
     0.46519E+03
     0.47538E+03
     0.46450E+03
     0.46397E+03
     0.48238E+03
     0.49841E+03
     0.50182E+03
     0.50094E+03
     0.51373E+03
     0.52557E+03
     0.53377E+03
     0.54591E+03
     0.55219E+03
     0.60715E+03
     0.63178E+03
     0.65135E+03
     0.61766E+03
     0.60400E+03
     0.63027E+03
     0.64656E+03
     0.64682E+03
     0.63880E+03
     0.63868E+03
     0.65022E+03
     0.66253E+03
     0.66630E+03
     0.66973E+03
     0.67746E+03
     0.68326E+03
     0.69115E+03
     0.70252E+03
     0.78864E+03
     0.81389E+03
     0.83054E+03
     0.79843E+03
     0.77953E+03
     0.79750E+03
     0.81185E+03
     0.81569E+03
     0.81128E+03
     0.81234E+03
     0.81496E+03
     0.81793E+03
     0.82470E+03
     0.82612E+03
     0.83599E+03
     0.84060E+03
     0.84077E+03
     0.85437E+03
     0.96818E+03
     0.99153E+03
     0.10061E+04
     0.97148E+03
     0.95480E+03
     0.97364E+03
     0.98278E+03
     0.98103E+03
     0.97873E+03
     0.97886E+03
     0.97903E+03
     0.98327E+03
     0.98453E+03
     0.98081E+03
     0.99475E+03
     0.99909E+03
     0.99588E+03
     0.10009E+04
     0.11437E+04
     0.11649E+04
     0.11748E+04
     0.11416E+04
     0.11336E+04
     0.11507E+04
     0.11554E+04
     0.11532E+04
     0.11495E+04
     0.11468E+04
     0.11458E+04
     0.11475E+04
     0.11460E+04
     0.11440E+04
     0.11540E+04
     0.11598E+04
     0.11568E+04
     0.11565E+04
     0.13157E+04
     0.13322E+04
     0.13378E+04
     0.13214E+04
     0.13175E+04
     0.13218E+04
     0.13233E+04
     0.13256E+04
     0.13259E+04
     0.13253E+04
     0.13248E+04
     0.13239E+04
     0.13213E+04
     0.13188E+04
     0.13214E+04
     0.13248E+04
     0.13232E+04
     0.13225E+04
     0.14864E+04
     0.14992E+04
     0.15035E+04
     0.15006E+04
     0.14985E+04
     0.14920E+04
     0.14893E+04
     0.14933E+04
     0.14956E+04
     0.14968E+04
     0.14985E+04
     0.14995E+04
     0.15002E+04
     0.14989E+04
     0.14968E+04
     0.14975E+04
     0.14972E+04
     0.14971E+04
     0.16572E+04
     0.16687E+04
     0.16740E+04
     0.16749E+04
     0.16732E+04
     0.16685E+04
     0.16649E+04
     0.16643E+04
     0.16636E+04
     0.16633E+04
     0.16645E+04
     0.16652E+04
     0.16655E+04
     0.16640E+04
     0.16615E+04
     0.16624E+04
     0.16638E+04
     0.16646E+04
     0.18005E+04
     0.18183E+04
     0.18305E+04
     0.18352E+04
     0.18362E+04
     0.18339E+04
     0.18307E+04
     0.18285E+04
     0.18272E+04
     0.18260E+04
     0.18250E+04
     0.18231E+04
     0.18213E+04
     0.18201E+04
     0.18181E+04
     0.18168E+04
     0.18152E+04
     0.18129E+04
     0.19118E+04
     0.19278E+04
     0.19433E+04
     0.19471E+04
     0.19458E+04
     0.19429E+04
     0.19387E+04
     0.19348E+04
     0.19319E+04
     0.19299E+04
     0.19282E+04
     0.19260E+04
     0.19241E+04
     0.19226E+04
     0.19206E+04
     0.19185E+04
     0.19161E+04
     0.19128E+04
    -0.52512E+02
    -0.55812E+02
    -0.54726E+02
    -0.52626E+02
    -0.51078E+02
    -0.54753E+02
    -0.57091E+02
    -0.55551E+02
    -0.53150E+02
    -0.55549E+02
    -0.57417E+02
    -0.54793E+02
    -0.54231E+02
    -0.56892E+02
    -0.54767E+02
    -0.53992E+02
    -0.56985E+02
    -0.54184E+02
    -0.57467E+02
    -0.59647E+02
    -0.62490E+02
    -0.63070E+02
    -0.59221E+02
    -0.60611E+02
    -0.63269E+02
    -0.62927E+02
    -0.60957E+02
    -0.61948E+02
    -0.63392E+02
    -0.61722E+02
    -0.61426E+02
    -0.63612E+02
    -0.61499E+02
    -0.61364E+02
    -0.62582E+02
    -0.58464E+02
    -0.67038E+02
    -0.62538E+02
    -0.64438E+02
    -0.67174E+02
    -0.66322E+02
    -0.66020E+02
    -0.66645E+02
    -0.66962E+02
    -0.65940E+02
    -0.66496E+02
    -0.67549E+02
    -0.67001E+02
    -0.67409E+02
    -0.69092E+02
    -0.68250E+02
    -0.68711E+02
    -0.69409E+02
    -0.68374E+02
    -0.68267E+02
    -0.68024E+02
    -0.68251E+02
    -0.69227E+02
    -0.69380E+02
    -0.69680E+02
    -0.70368E+02
    -0.71730E+02
    -0.70250E+02
    -0.70219E+02
    -0.72515E+02
    -0.71682E+02
    -0.72052E+02
    -0.74733E+02
    -0.72811E+02
    -0.73109E+02
    -0.72325E+02
    -0.70709E+02
    -0.69580E+02
    -0.71230E+02
    -0.70483E+02
    -0.71659E+02
    -0.73627E+02
    -0.72359E+02
    -0.73039E+02
    -0.75757E+02
    -0.73939E+02
    -0.71807E+02
    -0.73408E+02
    -0.73070E+02
    -0.73055E+02
    -0.74156E+02
    -0.72593E+02
    -0.72780E+02
    -0.72437E+02
    -0.71147E+02
    -0.72467E+02
    -0.76379E+02
    -0.73211E+02
    -0.72340E+02
    -0.74269E+02
    -0.72557E+02
    -0.72243E+02
    -0.74037E+02
    -0.74009E+02
    -0.72697E+02
    -0.73176E+02
    -0.73352E+02
    -0.74379E+02
    -0.74656E+02
    -0.74411E+02
    -0.74689E+02
    -0.74020E+02
    -0.73679E+02
    -0.71582E+02
    -0.75009E+02
    -0.73248E+02
    -0.72033E+02
    -0.73141E+02
    -0.72935E+02
    -0.72476E+02
    -0.73745E+02
    -0.74646E+02
    -0.75267E+02
    -0.75027E+02
    -0.74108E+02
    -0.76952E+02
    -0.75811E+02
    -0.74139E+02
    -0.74341E+02
    -0.72698E+02
    -0.73350E+02
    -0.70738E+02
    -0.72865E+02
    -0.73151E+02
    -0.72820E+02
    -0.73848E+02
    -0.73514E+02
    -0.73643E+02
    -0.75587E+02
    -0.75356E+02
    -0.75113E+02
    -0.74242E+02
    -0.72709E+02
    -0.74778E+02
    -0.73480E+02
    -0.73205E+02
    -0.74052E+02
    -0.72148E+02
    -0.72671E+02
    -0.70762E+02
    -0.72789E+02
    -0.72806E+02
    -0.73130E+02
    -0.74349E+02
    -0.73347E+02
    -0.73548E+02
    -0.75593E+02
    -0.74055E+02
    -0.73581E+02
    -0.73812E+02
    -0.73542E+02
    -0.74007E+02
    -0.73085E+02
    -0.75371E+02
    -0.74348E+02
    -0.72821E+02
    -0.73108E+02
    -0.67813E+02
    -0.69178E+02
    -0.69455E+02
    -0.70292E+02
    -0.71233E+02
    -0.70275E+02
    -0.71959E+02
    -0.73046E+02
    -0.73394E+02
    -0.74611E+02
    -0.73967E+02
    -0.74554E+02
    -0.74098E+02
    -0.71140E+02
    -0.73016E+02
    -0.72024E+02
    -0.70763E+02
    -0.71185E+02
    -0.58151E+02
    -0.59349E+02
    -0.62354E+02
    -0.64715E+02
    -0.65651E+02
    -0.67917E+02
    -0.69573E+02
    -0.68418E+02
    -0.69219E+02
    -0.69867E+02
    -0.69434E+02
    -0.69646E+02
    -0.69247E+02
    -0.68291E+02
    -0.68306E+02
    -0.68684E+02
    -0.69718E+02
    -0.69076E+02
    -0.36174E+02
    -0.34031E+02
    -0.40938E+02
    -0.46391E+02
    -0.49067E+02
    -0.50368E+02
    -0.54093E+02
    -0.57602E+02
    -0.57585E+02
    -0.58183E+02
    -0.62265E+02
    -0.60986E+02
    -0.60689E+02
    -0.64252E+02
    -0.60668E+02
    -0.60771E+02
    -0.66336E+02
    -0.63901E+02
     0.22804E+02
     0.16117E+02
     0.48024E+01
     0.35436E+01
    -0.63535E+01
    -0.98371E+01
    -0.72378E+01
    -0.19869E+02
    -0.26880E+02
    -0.23561E+02
    -0.32755E+02
    -0.39381E+02
    -0.36817E+02
    -0.40065E+02
    -0.38109E+02
    -0.41357E+02
    -0.46614E+02
    -0.43117E+02
     0.12466E+03
     0.12263E+03
     0.10632E+03
     0.92884E+02
     0.91217E+02
     0.76057E+02
     0.67567E+02
     0.56985E+02
     0.49036E+02
     0.46672E+02
     0.27677E+02
     0.26843E+02
     0.33593E+02
     0.17806E+02
     0.23979E+02
     0.28326E+02
     0.42479E+01
     0.34308E+01
     0.26348E+03
     0.24766E+03
     0.24358E+03
     0.22902E+03
     0.21299E+03
     0.19785E+03
     0.19601E+03
     0.18225E+03
     0.15595E+03
     0.16474E+03
     0.16491E+03
     0.13812E+03
     0.14085E+03
     0.14766E+03
     0.12895E+03
     0.12131E+03
     0.12108E+03
     0.11134E+03
     0.41168E+03
     0.39634E+03
     0.37992E+03
     0.37271E+03
     0.36412E+03
     0.35125E+03
     0.33766E+03
     0.32642E+03
     0.32325E+03
     0.31654E+03
     0.29488E+03
     0.29311E+03
     0.30297E+03
     0.28105E+03
     0.26006E+03
     0.27870E+03
     0.28361E+03
     0.25849E+03
     0.55103E+03
     0.54494E+03
     0.53263E+03
     0.52495E+03
     0.51259E+03
     0.49995E+03
     0.50175E+03
     0.49747E+03
     0.48119E+03
     0.46301E+03
     0.46338E+03
     0.47313E+03
     0.46738E+03
     0.42835E+03
     0.43021E+03
     0.46841E+03
     0.45473E+03
     0.42265E+03
     0.70143E+03
     0.69026E+03
     0.68203E+03
     0.67678E+03
     0.66957E+03
     0.66689E+03
     0.66260E+03
     0.65180E+03
     0.63763E+03
     0.63779E+03
     0.64594E+03
     0.64593E+03
     0.63027E+03
     0.60540E+03
     0.61485E+03
     0.65047E+03
     0.63099E+03
     0.60628E+03
     0.85307E+03
     0.83959E+03
     0.83919E+03
     0.83514E+03
     0.82588E+03
     0.82428E+03
     0.81723E+03
     0.81149E+03
     0.81141E+03
     0.81096E+03
     0.81551E+03
     0.81124E+03
     0.79769E+03
     0.77860E+03
     0.79534E+03
     0.82962E+03
     0.81323E+03
     0.78790E+03
     0.10001E+04
     0.99482E+03
     0.99775E+03
     0.99375E+03
     0.97875E+03
     0.98291E+03
     0.98260E+03
     0.97808E+03
     0.97803E+03
     0.97840E+03
     0.98068E+03
     0.98221E+03
     0.97406E+03
     0.95422E+03
     0.96839E+03
     0.10045E+04
     0.99110E+03
     0.96783E+03
     0.11560E+04
     0.11557E+04
     0.11588E+04
     0.11531E+04
     0.11420E+04
     0.11441E+04
     0.11465E+04
     0.11450E+04
     0.11458E+04
     0.11485E+04
     0.11523E+04
     0.11548E+04
     0.11509E+04
     0.11335E+04
     0.11387E+04
     0.11712E+04
     0.11644E+04
     0.11433E+04
     0.13218E+04
     0.13220E+04
     0.13237E+04
     0.13203E+04
     0.13169E+04
     0.13192E+04
     0.13225E+04
     0.13238E+04
     0.13246E+04
     0.13255E+04
     0.13258E+04
     0.13234E+04
     0.13208E+04
     0.13166E+04
     0.13197E+04
     0.13351E+04
     0.13316E+04
     0.13151E+04
     0.14963E+04
     0.14965E+04
     0.14970E+04
     0.14959E+04
     0.14979E+04
     0.14991E+04
     0.14984E+04
     0.14977E+04
     0.14964E+04
     0.14957E+04
     0.14945E+04
     0.14900E+04
     0.14901E+04
     0.14968E+04
     0.14997E+04
     0.15021E+04
     0.14982E+04
     0.14855E+04
     0.16640E+04
     0.16636E+04
     0.16622E+04
     0.16605E+04
     0.16629E+04
     0.16642E+04
     0.16635E+04
     0.16631E+04
     0.16622E+04
     0.16629E+04
     0.16647E+04
     0.16653E+04
     0.16672E+04
     0.16718E+04
     0.16739E+04
     0.16729E+04
     0.16675E+04
     0.16560E+04
     0.18122E+04
     0.18145E+04
     0.18160E+04
     0.18170E+04
     0.18188E+04
     0.18200E+04
     0.18220E+04
     0.18239E+04
     0.18250E+04
     0.18264E+04
     0.18282E+04
     0.18305E+04
     0.18334E+04
     0.18356E+04
     0.18352E+04
     0.18307E+04
     0.18187E+04
     0.18006E+04
     0.19127E+04
     0.19160E+04
     0.19183E+04
     0.19203E+04
     0.19223E+04
     0.19238E+04
     0.19257E+04
     0.19279E+04
     0.19296E+04
     0.19318E+04
     0.19348E+04
     0.19387E+04
     0.19428E+04
     0.19457E+04
     0.19470E+04
     0.19432E+04
     0.19280E+04
     0.19118E+04
    -0.47025E+02
    -0.27484E+02
    -0.48451E+02
    -0.46301E+02
    -0.26561E+02
    -0.47936E+02
    -0.51789E+02
    -0.46864E+02
    -0.46434E+02
    -0.55711E+02
    -0.47738E+02
    -0.51192E+02
    -0.45573E+02
    -0.54097E+02
    -0.49398E+02
    -0.43631E+02
    -0.44273E+02
    -0.55170E+02
    -0.44326E+02
    -0.47752E+02
    -0.42331E+02
    -0.53190E+02
    -0.50147E+02
    -0.56636E+02
    -0.48955E+02
    -0.55481E+02
    -0.51305E+02
    -0.53394E+02
    -0.50060E+02
    -0.56551E+02
    -0.49942E+02
    -0.52879E+02
    -0.49725E+02
    -0.56486E+02
    -0.36608E+02
    -0.46722E+02
    -0.35909E+02
    -0.45287E+02
    -0.36168E+02
    -0.42369E+02
    -0.36906E+02
    -0.47472E+02
    -0.45105E+02
    -0.53719E+02
    -0.47045E+02
    -0.53565E+02
    -0.44975E+02
    -0.51079E+02
    -0.47248E+02
    -0.54306E+02
    -0.53367E+02
    -0.57405E+02
    -0.37084E+02
    -0.47286E+02
    -0.37373E+02
    -0.46442E+02
    -0.39476E+02
    -0.46955E+02
    -0.43516E+02
    -0.52354E+02
    -0.48219E+02
    -0.54894E+02
    -0.47461E+02
    -0.53960E+02
    -0.45859E+02
    -0.51659E+02
    -0.48344E+02
    -0.54919E+02
    -0.54166E+02
    -0.57694E+02
    -0.31858E+02
    -0.27546E+02
    -0.20981E+02
    -0.20538E+02
    -0.18230E+02
    -0.17837E+02
    -0.16498E+02
    -0.16999E+02
    -0.15954E+02
    -0.16141E+02
    -0.15216E+02
    -0.15537E+02
    -0.14515E+02
    -0.15005E+02
    -0.14319E+02
    -0.14916E+02
    -0.14005E+02
    -0.15179E+02
    -0.14454E+02
    -0.15364E+02
    -0.14651E+02
    -0.15899E+02
    -0.15938E+02
    -0.17044E+02
    -0.16530E+02
    -0.17660E+02
    -0.17834E+02
    -0.20038E+02
    -0.20107E+02
    -0.25933E+02
    -0.53525E+02
    -0.53163E+02
    -0.28862E+02
    -0.26969E+02
    -0.31989E+02
    -0.31691E+02
    -0.26679E+02
    -0.32566E+02
    -0.27117E+02
    -0.35338E+02
    -0.28810E+02
    -0.39690E+02
    -0.32025E+02
    -0.42313E+02
    -0.36016E+02
    -0.29667E+02
    -0.24991E+02
    -0.28674E+02
    -0.24956E+02
    -0.30042E+02
    -0.24938E+02
    -0.33788E+02
    -0.27327E+02
    -0.38412E+02
    -0.30617E+02
    -0.41471E+02
    -0.34988E+02
    -0.18631E+02
    -0.22904E+02
    -0.25715E+02
    -0.20593E+02
    -0.27308E+02
    -0.22549E+02
    -0.29513E+02
    -0.23871E+02
    -0.31749E+02
    -0.25889E+02
    -0.34042E+02
    -0.28757E+02
    -0.34789E+02
    -0.30350E+02
    -0.37823E+02
    -0.31333E+02
    -0.41444E+02
    -0.33560E+02
    -0.17783E+02
    -0.21661E+02
    -0.24335E+02
    -0.19519E+02
    -0.24597E+02
    -0.21046E+02
    -0.25575E+02
    -0.21222E+02
    -0.29818E+02
    -0.23923E+02
    -0.33004E+02
    -0.27655E+02
    -0.33024E+02
    -0.28779E+02
    -0.35992E+02
    -0.29384E+02
    -0.39836E+02
    -0.31557E+02
    -0.18639E+02
    -0.20064E+02
    -0.16168E+02
    -0.16599E+02
    -0.15236E+02
    -0.15308E+02
    -0.14148E+02
    -0.14179E+02
    -0.12654E+02
    -0.12775E+02
    -0.12526E+02
    -0.12514E+02
    -0.12182E+02
    -0.11971E+02
    -0.12842E+02
    -0.12285E+02
    -0.13450E+02
    -0.12459E+02
    -0.14176E+02
    -0.13686E+02
    -0.14420E+02
    -0.13774E+02
    -0.15296E+02
    -0.14467E+02
    -0.17038E+02
    -0.15680E+02
    -0.19628E+02
    -0.17782E+02
    -0.20976E+02
    -0.42999E+02
    -0.35463E+02
    -0.43998E+02
    -0.37026E+02
    -0.15343E+02
    -0.13888E+02
    -0.16060E+02
    -0.14681E+02
    -0.20643E+02
    -0.18933E+02
    -0.17519E+02
    -0.16126E+02
    -0.18246E+02
    -0.16219E+02
    -0.15255E+02
    -0.16902E+02
    -0.21450E+02
    -0.19735E+02
    -0.22854E+02
    -0.20769E+02
    -0.25056E+02
    -0.22303E+02
    -0.29701E+02
    -0.24709E+02
    -0.18665E+02
    -0.19995E+02
    -0.20305E+02
    -0.18771E+02
    -0.22029E+02
    -0.19780E+02
    -0.24006E+02
    -0.21774E+02
    -0.28366E+02
    -0.23499E+02
    -0.18100E+02
    -0.16251E+02
    -0.19597E+02
    -0.17819E+02
    -0.21853E+02
    -0.19470E+02
    -0.22462E+02
    -0.19681E+02
    -0.17644E+02