# vtk DataFile Version 3.14.1
BMesh by KP LIAO
ASCII
DATASET UNSTRUCTURED_GRID
POINTS 	      8150 	FLOAT
    5.19919 	   2.72359 	   4.27636
    5.19669 	   2.59626 	   4.16649
    5.19432 	   2.52792 	   4.06268
    5.19019 	   2.49890 	   3.88154
    5.54100 	   2.49888 	   3.86943
    5.55009 	   2.81808 	   4.26795
    5.19432 	   2.47145 	   4.06293
    5.19670 	   2.40400 	   4.16731
    5.19924 	   2.27762 	   4.27828
    5.55015 	   2.18313 	   4.27069
    6.25191 	   2.82727 	   4.25191
    6.24282 	   2.49888 	   3.85342
    6.25197 	   2.17394 	   4.25472
    7.88039 	   2.49888 	   3.81608
    7.88955 	   2.17394 	   4.21738
    7.88948 	   2.82727 	   4.21456
    9.29312 	   2.82727 	   4.18255
    9.28403 	   2.49888 	   3.78407
    9.29318 	   2.17394 	   4.18537
    9.64838 	   2.49922 	   3.85378
    9.64832 	   2.49254 	   3.85119
    9.57865 	   2.49263 	   3.87385
    9.59760 	   2.49952 	   3.92362
    9.57979 	   2.48778 	   3.92408
    9.55331 	   2.48306 	   3.91800
    9.57693 	   2.49897 	   3.79819
    9.55021 	   2.49894 	   3.79133
    9.52103 	   2.47709 	   3.91317
    9.51813 	   2.49891 	   3.78589
    9.57864 	   2.50597 	   3.87380
    9.64832 	   2.50588 	   3.85114
    9.57979 	   2.51125 	   3.92398
    9.55331 	   2.51592 	   3.91786
    9.52103 	   2.52184 	   3.91297
    9.83564 	   2.82727 	   4.17018
    9.64403 	   2.82727 	   4.17455
    9.83118 	   2.49976 	   3.97431
    9.63873 	   2.49960 	   3.94243
    9.52706 	   2.82727 	   4.17722
    9.64409 	   2.17394 	   4.17736
    9.83571 	   2.17394 	   4.17299
    9.52712 	   2.17394 	   4.18003
    9.43121 	   2.17394 	   4.18222
    9.43115 	   2.82727 	   4.17940
    9.83568 	   2.50061 	   4.17159
    9.64783 	   2.49912 	   3.82978
    9.42206 	   2.49888 	   3.78092
    5.13586 	   2.51663 	   4.06531
    5.13450 	   2.52605 	   4.00555
    5.13188 	   2.49893 	   3.89053
    5.13451 	   2.47281 	   4.00578
    5.13586 	   2.48274 	   4.06545
    5.07617 	   2.47670 	   4.01349
    5.07708 	   2.49046 	   4.05342
    5.07738 	   2.49969 	   4.06671
    5.07708 	   2.50880 	   4.05335
    5.07616 	   2.52222 	   4.01330
    5.06665 	   2.49963 	   4.05362
    5.01768 	   2.52006 	   4.01464
    5.01859 	   2.49963 	   4.05472
    5.01768 	   2.47886 	   4.01482
    5.07373 	   2.49900 	   3.90682
    5.01584 	   2.49911 	   3.93398
    4.94029 	   2.49946 	   4.01649
    5.14070 	   2.69298 	   4.27783
    5.14074 	   2.30824 	   4.27949
    4.94169 	   2.50061 	   4.28320
    5.13828 	   2.57099 	   4.17171
    5.02628 	   2.50015 	   4.17457
    5.13830 	   2.42931 	   4.17232
    5.21761 	   2.73202 	   4.27541
    5.23622 	   2.74005 	   4.27470
    5.25501 	   2.74767 	   4.27421
    5.27397 	   2.75489 	   4.27391
    5.29307 	   2.76168 	   4.27371
    5.31232 	   2.76806 	   4.27354
    5.33171 	   2.77402 	   4.27330
    5.35121 	   2.77959 	   4.27297
    5.37081 	   2.78478 	   4.27252
    5.39049 	   2.78963 	   4.27199
    5.41025 	   2.79417 	   4.27140
    5.43007 	   2.79842 	   4.27079
    5.44995 	   2.80240 	   4.27021
    5.46988 	   2.80611 	   4.26968
    5.48987 	   2.80955 	   4.26919
    5.50990 	   2.81271 	   4.26875
    5.52997 	   2.81556 	   4.26834
    5.19894 	   2.70859 	   4.26519
    5.19868 	   2.69383 	   4.25371
    5.19841 	   2.67933 	   4.24190
    5.19813 	   2.66505 	   4.22981
    5.19785 	   2.65094 	   4.21753
    5.19757 	   2.63696 	   4.20511
    5.19728 	   2.62319 	   4.19245
    5.19698 	   2.60964 	   4.17956
    5.19639 	   2.58343 	   4.15366
    5.19610 	   2.57075 	   4.14069
    5.19579 	   2.55857 	   4.12724
    5.19546 	   2.54758 	   4.11281
    5.19511 	   2.53829 	   4.09724
    5.19472 	   2.53149 	   4.08044
    5.19387 	   2.52713 	   4.04305
    5.19342 	   2.52848 	   4.02345
    5.19298 	   2.53124 	   4.00398
    5.19254 	   2.53404 	   3.98452
    5.19209 	   2.53566 	   3.96494
    5.19164 	   2.53480 	   3.94531
    5.19120 	   2.53171 	   3.92591
    5.19077 	   2.52567 	   3.90723
    5.19039 	   2.51577 	   3.89030
    5.52150 	   2.49888 	   3.86977
    5.50199 	   2.49888 	   3.87013
    5.48248 	   2.49888 	   3.87053
    5.46298 	   2.49888 	   3.87099
    5.44348 	   2.49888 	   3.87152
    5.42398 	   2.49888 	   3.87210
    5.40448 	   2.49888 	   3.87271
    5.38498 	   2.49889 	   3.87330
    5.36547 	   2.49889 	   3.87382
    5.34597 	   2.49889 	   3.87424
    5.32646 	   2.49889 	   3.87455
    5.30695 	   2.49888 	   3.87476
    5.28744 	   2.49888 	   3.87499
    5.26794 	   2.49888 	   3.87538
    5.24844 	   2.49888 	   3.87610
    5.22897 	   2.49889 	   3.87732
    5.20955 	   2.49889 	   3.87913
    5.54968 	   2.80991 	   4.24978
    5.54928 	   2.80006 	   4.23246
    5.54891 	   2.78863 	   4.21613
    5.54855 	   2.77622 	   4.20053
    5.54821 	   2.76312 	   4.18551
    5.54788 	   2.74952 	   4.17092
    5.54755 	   2.73558 	   4.15667
    5.54723 	   2.72138 	   4.14268
    5.54692 	   2.70692 	   4.12896
    5.54661 	   2.69256 	   4.11513
    5.54628 	   2.67865 	   4.10085
    5.54594 	   2.66522 	   4.08612
    5.54560 	   2.65220 	   4.07102
    5.54525 	   2.63965 	   4.05554
    5.54489 	   2.62752 	   4.03972
    5.54452 	   2.61553 	   4.02379
    5.54416 	   2.60354 	   4.00786
    5.54380 	   2.59158 	   3.99191
    5.54343 	   2.57962 	   3.97596
    5.54306 	   2.56794 	   3.95981
    5.54268 	   2.55709 	   3.94309
    5.54228 	   2.54785 	   3.92544
    5.54186 	   2.54059 	   3.90688
    5.54145 	   2.53152 	   3.88920
    5.54113 	   2.51754 	   3.87514
    5.19388 	   2.47206 	   4.04329
    5.19343 	   2.47054 	   4.02370
    5.19299 	   2.46762 	   4.00425
    5.19254 	   2.46466 	   3.98482
    5.19210 	   2.46287 	   3.96526
    5.19165 	   2.46355 	   3.94561
    5.19121 	   2.46648 	   3.92619
    5.19078 	   2.47236 	   3.90746
    5.19039 	   2.48211 	   3.89045
    5.19641 	   2.41672 	   4.15438
    5.19611 	   2.42929 	   4.14130
    5.19580 	   2.44136 	   4.12775
    5.19547 	   2.45222 	   4.11322
    5.19511 	   2.46138 	   4.09757
    5.19473 	   2.46803 	   4.08072
    5.19898 	   2.29253 	   4.26699
    5.19871 	   2.30719 	   4.25538
    5.19844 	   2.32159 	   4.24344
    5.19816 	   2.33576 	   4.23123
    5.19788 	   2.34976 	   4.21883
    5.19759 	   2.36363 	   4.20628
    5.19730 	   2.37730 	   4.19351
    5.19701 	   2.39074 	   4.18050
    5.21766 	   2.26919 	   4.27740
    5.23627 	   2.26116 	   4.27676
    5.25506 	   2.25353 	   4.27634
    5.27402 	   2.24632 	   4.27610
    5.29312 	   2.23953 	   4.27596
    5.31238 	   2.23316 	   4.27584
    5.33176 	   2.22720 	   4.27566
    5.35126 	   2.22163 	   4.27537
    5.37086 	   2.21644 	   4.27497
    5.39055 	   2.21159 	   4.27448
    5.41031 	   2.20705 	   4.27393
    5.43013 	   2.20280 	   4.27336
    5.45001 	   2.19882 	   4.27281
    5.46994 	   2.19510 	   4.27231
    5.48993 	   2.19166 	   4.27185
    5.50996 	   2.18851 	   4.27143
    5.53003 	   2.18566 	   4.27105
    5.54974 	   2.19115 	   4.25244
    5.54934 	   2.20085 	   4.23504
    5.54897 	   2.21214 	   4.21862
    5.54861 	   2.22441 	   4.20290
    5.54826 	   2.23738 	   4.18777
    5.54793 	   2.25085 	   4.17307
    5.54760 	   2.26467 	   4.15870
    5.54728 	   2.27875 	   4.14459
    5.54696 	   2.29309 	   4.13074
    5.54664 	   2.30733 	   4.11679
    5.54632 	   2.32112 	   4.10239
    5.54598 	   2.33442 	   4.08754
    5.54563 	   2.34731 	   4.07234
    5.54527 	   2.35973 	   4.05675
    5.54491 	   2.37173 	   4.04082
    5.54455 	   2.38357 	   4.02479
    5.54418 	   2.39542 	   4.00876
    5.54381 	   2.40725 	   3.99271
    5.54345 	   2.41907 	   3.97666
    5.54308 	   2.43061 	   3.96040
    5.54269 	   2.44132 	   3.94359
    5.54229 	   2.45040 	   3.92586
    5.54187 	   2.45750 	   3.90724
    5.54146 	   2.46642 	   3.88948
    5.54114 	   2.48028 	   3.87530
    5.19923 	   2.30386 	   4.27817
    5.19923 	   2.33009 	   4.27806
    5.19923 	   2.35632 	   4.27794
    5.19923 	   2.38256 	   4.27783
    5.19922 	   2.40879 	   4.27772
    5.19922 	   2.43502 	   4.27761
    5.19922 	   2.46126 	   4.27749
    5.19922 	   2.48749 	   4.27738
    5.19921 	   2.51372 	   4.27727
    5.19921 	   2.53996 	   4.27715
    5.19921 	   2.56619 	   4.27704
    5.19920 	   2.59242 	   4.27693
    5.19920 	   2.61866 	   4.27681
    5.19920 	   2.64489 	   4.27670
    5.19920 	   2.67113 	   4.27659
    5.19919 	   2.69736 	   4.27648
    5.55015 	   2.24663 	   4.27041
    5.55014 	   2.31012 	   4.27014
    5.55013 	   2.37362 	   4.26987
    5.55013 	   2.43711 	   4.26959
    5.55012 	   2.50061 	   4.26932
    5.55012 	   2.56410 	   4.26905
    5.55011 	   2.62760 	   4.26877
    5.55010 	   2.69109 	   4.26850
    5.55010 	   2.75459 	   4.26823
    6.25138 	   2.82717 	   4.22857
    6.25084 	   2.82707 	   4.20523
    6.25031 	   2.82697 	   4.18189
    6.24978 	   2.82687 	   4.15855
    6.24925 	   2.82677 	   4.13521
    6.24871 	   2.82638 	   4.11188
    6.24818 	   2.82455 	   4.08862
    6.24766 	   2.82045 	   4.06565
    6.24715 	   2.81342 	   4.04342
    6.24668 	   2.80304 	   4.02254
    6.24623 	   2.79020 	   4.00306
    6.24581 	   2.77585 	   3.98465
    6.24541 	   2.76046 	   3.96711
    6.24502 	   2.74451 	   3.95007
    6.24464 	   2.72830 	   3.93327
    6.24426 	   2.71187 	   3.91669
    6.24389 	   2.69517 	   3.90038
    6.24353 	   2.67786 	   3.88472
    6.24322 	   2.65907 	   3.87091
    6.24299 	   2.63813 	   3.86068
    6.24286 	   2.61552 	   3.85504
    6.24281 	   2.59226 	   3.85316
    6.24281 	   2.56892 	   3.85312
    6.24282 	   2.54557 	   3.85322
    6.24282 	   2.52223 	   3.85332
    5.58890 	   2.82202 	   4.26721
    5.62782 	   2.82475 	   4.26643
    5.66679 	   2.82642 	   4.26556
    5.70579 	   2.82724 	   4.26461
    5.74480 	   2.82744 	   4.26361
    5.78380 	   2.82727 	   4.26258
    5.82281 	   2.82696 	   4.26157
[...]
CELL_DATA 	      9403
SCALARS 	cell_scalars 	FLOAT 	         1
LOOKUP_TABLE 	DEFAULT
    -0.93229E+02
    -0.64213E+02
    -0.58974E+02
    -0.63200E+02
    -0.66186E+02
    -0.62158E+02
    -0.69508E+02
    -0.69324E+02
    -0.58049E+02
    -0.64699E+02
    -0.77411E+02
    -0.61709E+02
    -0.46965E+02
    -0.49735E+02
    -0.54606E+02
    -0.49826E+02
    -0.41350E+02
    -0.46138E+02
    -0.66845E+02
    -0.62303E+02
    -0.62356E+02
    -0.61447E+02
    -0.63698E+02
    -0.63430E+02
    -0.64579E+02
    -0.65804E+02
    -0.61886E+02
    -0.63786E+02
    -0.67455E+02
    -0.63461E+02
    -0.61446E+02
    -0.62178E+02
    -0.59892E+02
    -0.58674E+02
    -0.59894E+02
    -0.59785E+02
    -0.70683E+02
    -0.69857E+02
    -0.69047E+02
    -0.67950E+02
    -0.67222E+02
    -0.66393E+02
    -0.65680E+02
    -0.65664E+02
    -0.64044E+02
    -0.66634E+02
    -0.67804E+02
    -0.64238E+02
    -0.66345E+02
    -0.67988E+02
    -0.61988E+02
    -0.59202E+02
    -0.63478E+02
    -0.64025E+02
    -0.73146E+02
    -0.75106E+02
    -0.73505E+02
    -0.73396E+02
    -0.73138E+02
    -0.70837E+02
    -0.69269E+02
    -0.69291E+02
    -0.67695E+02
    -0.68671E+02
    -0.69921E+02
    -0.66452E+02
    -0.66540E+02
    -0.67129E+02
    -0.65033E+02
    -0.65607E+02
    -0.65828E+02
    -0.62900E+02
    -0.73819E+02
    -0.77182E+02
    -0.73777E+02
    -0.75541E+02
    -0.74766E+02
    -0.71975E+02
    -0.71440E+02
    -0.71421E+02
    -0.69830E+02
    -0.70434E+02
    -0.69947E+02
    -0.67205E+02
    -0.67702E+02
    -0.67100E+02
    -0.65660E+02
    -0.68082E+02
    -0.66415E+02
    -0.64103E+02
    -0.72108E+02
    -0.76622E+02
    -0.75802E+02
    -0.77074E+02
    -0.74882E+02
    -0.73215E+02
    -0.72597E+02
    -0.71576E+02
    -0.71269E+02
    -0.72070E+02
    -0.71393E+02
    -0.69566E+02
    -0.69827E+02
    -0.68756E+02
    -0.67236E+02
    -0.70079E+02
    -0.69082E+02
    -0.66656E+02
    -0.70910E+02
    -0.75377E+02
    -0.74461E+02
    -0.75957E+02
    -0.74233E+02
    -0.73967E+02
    -0.74171E+02
    -0.73957E+02
    -0.73360E+02
    -0.72935E+02
    -0.71870E+02
    -0.70237E+02
    -0.70099E+02
    -0.70371E+02
    -0.70561E+02
    -0.71169E+02
    -0.69751E+02
    -0.68758E+02
    -0.71878E+02
    -0.74927E+02
    -0.73368E+02
    -0.74286E+02
    -0.72539E+02
    -0.71738E+02
    -0.73945E+02
    -0.75168E+02
    -0.74255E+02
    -0.74556E+02
    -0.73945E+02
    -0.72946E+02
    -0.72583E+02
    -0.71523E+02
    -0.71335E+02
    -0.71507E+02
    -0.69926E+02
    -0.71445E+02
    -0.73253E+02
    -0.75464E+02
    -0.74037E+02
    -0.74903E+02
    -0.73896E+02
    -0.72751E+02
    -0.75148E+02
    -0.75210E+02
    -0.73608E+02
    -0.73966E+02
    -0.74138E+02
    -0.74554E+02
    -0.76719E+02
    -0.74749E+02
    -0.72435E+02
    -0.71580E+02
    -0.69928E+02
    -0.69092E+02
    -0.72096E+02
    -0.72816E+02
    -0.75013E+02
    -0.74965E+02
    -0.74802E+02
    -0.75473E+02
    -0.76096E+02
    -0.76645E+02
    -0.75331E+02
    -0.75158E+02
    -0.75036E+02
    -0.73690E+02
    -0.73182E+02
    -0.73448E+02
    -0.72055E+02
    -0.72380E+02
    -0.70720E+02
    -0.67545E+02
    -0.70715E+02
    -0.72068E+02
    -0.72731E+02
    -0.72497E+02
    -0.73119E+02
    -0.72843E+02
    -0.72331E+02
    -0.74491E+02
    -0.75168E+02
    -0.74448E+02
    -0.75905E+02
    -0.75419E+02
    -0.72257E+02
    -0.70927E+02
    -0.69617E+02
    -0.69401E+02
    -0.68696E+02
    -0.65751E+02
    -0.67553E+02
    -0.69526E+02
    -0.68957E+02
    -0.70653E+02
    -0.71385E+02
    -0.70021E+02
    -0.70632E+02
    -0.68921E+02
    -0.68763E+02
    -0.69116E+02
    -0.68709E+02
    -0.69665E+02
    -0.67438E+02
    -0.68019E+02
    -0.68206E+02
    -0.66751E+02
    -0.65323E+02
    -0.63131E+02
    -0.62843E+02
    -0.65152E+02
    -0.61123E+02
    -0.64069E+02
    -0.65317E+02
    -0.64624E+02
    -0.66396E+02
    -0.63046E+02
    -0.62753E+02
    -0.63568E+02
    -0.63366E+02
    -0.64282E+02
    -0.62562E+02
    -0.63460E+02
    -0.64077E+02
    -0.64009E+02
    -0.63580E+02
    -0.60945E+02
    -0.59735E+02
    -0.55702E+02
    -0.55055E+02
    -0.59658E+02
    -0.58168E+02
    -0.58292E+02
    -0.59360E+02
    -0.59000E+02
    -0.57775E+02
    -0.55954E+02
    -0.58099E+02
    -0.57867E+02
    -0.56602E+02
    -0.59354E+02
    -0.58505E+02
    -0.60480E+02
    -0.59275E+02
    -0.58968E+02
    -0.60602E+02
    -0.49984E+02
    -0.45070E+02
    -0.51715E+02
    -0.54453E+02
    -0.48048E+02
    -0.49074E+02
    -0.54936E+02
    -0.50758E+02
    -0.50453E+02
    -0.55624E+02
    -0.51615E+02
    -0.51591E+02
    -0.56102E+02
    -0.55038E+02
    -0.53837E+02
    -0.53199E+02
    -0.61110E+02
    -0.58444E+02
    -0.55244E+02
    -0.44301E+02
    -0.41870E+02
    -0.49617E+02
    -0.49554E+02
    -0.44585E+02
    -0.48415E+02
    -0.53156E+02
    -0.50157E+02
    -0.48309E+02
    -0.47310E+02
    -0.46208E+02
    -0.48511E+02
    -0.45629E+02
    -0.47233E+02
    -0.49220E+02
    -0.45100E+02
    -0.55675E+02
    -0.52842E+02
    -0.50355E+02
    -0.43198E+02
    -0.46973E+02
    -0.53057E+02
    -0.47752E+02
    -0.41853E+02
    -0.42297E+02
    -0.46600E+02
    -0.44187E+02
    -0.32215E+02
    -0.28250E+02
    -0.41372E+02
    -0.19153E+02
    -0.23857E+02
    -0.12014E+02
    -0.11472E+02
    -0.51351E+02
    -0.47147E+02
    -0.44660E+02
    -0.48765E+02
    -0.54131E+02
    -0.53683E+02
    -0.46747E+02
    -0.38473E+02
    -0.30590E+02
    -0.27051E+02
    -0.26100E+02
    -0.15454E+02
    -0.13875E+02
     0.29204E+01
     0.36314E+02
     0.23343E+02
     0.77821E+02
     0.77992E+02
    -0.36384E+02
    -0.29611E+02
    -0.25229E+02
    -0.48591E+02
    -0.63546E+02
    -0.42475E+02
    -0.28523E+02
    -0.14540E+02
    -0.42073E+01
    -0.23253E-01
     0.31781E+02
     0.80432E+02
     0.61220E+02
     0.86929E+02
     0.11692E+03
     0.13678E+03
     0.19815E+03
     0.20295E+03
     0.60759E+01
     0.13810E+02
     0.20229E+02
    -0.30101E+02
    -0.49430E+02
     0.14639E+02
     0.42400E+02
     0.59017E+02
     0.79757E+02
     0.97867E+02
     0.13357E+03
     0.17760E+03
     0.19798E+03
     0.24093E+03
     0.27429E+03
     0.27938E+03
     0.31399E+03
     0.35488E+03
     0.85653E+02
     0.89746E+02
     0.74823E+02
     0.28599E+02
     0.58602E+02
     0.15553E+03
     0.18587E+03
     0.20276E+03
     0.22534E+03
     0.25303E+03
     0.28448E+03
     0.31825E+03
     0.35271E+03
     0.38996E+03
     0.42935E+03
     0.45308E+03
     0.48635E+03
     0.52503E+03
     0.21578E+03
     0.21765E+03
     0.18709E+03
     0.17716E+03
     0.25519E+03
     0.33798E+03
     0.36108E+03
     0.38750E+03
     0.41362E+03
     0.44254E+03
     0.47341E+03
     0.50347E+03
     0.53344E+03
     0.56517E+03
     0.59985E+03
     0.62823E+03
     0.65878E+03
     0.69108E+03
     0.38610E+03
     0.40146E+03
     0.40568E+03
     0.41683E+03
     0.45904E+03
     0.50892E+03
     0.54090E+03
     0.57670E+03
     0.60495E+03
     0.63393E+03
     0.66514E+03
     0.69501E+03
     0.72389E+03
     0.75403E+03
     0.78435E+03
     0.81325E+03
     0.84345E+03
     0.87339E+03
     0.57644E+03
     0.60223E+03
     0.62340E+03
     0.64962E+03
     0.68518E+03
     0.72120E+03
     0.75075E+03
     0.77757E+03
     0.80222E+03
     0.82712E+03
     0.85375E+03
     0.88048E+03
     0.90871E+03
     0.93779E+03
     0.96708E+03
     0.99582E+03
     0.10237E+04
     0.10507E+04
     0.74968E+03
     0.78045E+03
     0.81108E+03
     0.84577E+03
     0.88356E+03
     0.91739E+03
     0.94764E+03
     0.97540E+03
     0.10006E+04
     0.10262E+04
     0.10503E+04
     0.10733E+04
     0.10995E+04
     0.11260E+04
     0.11527E+04
     0.11795E+04
     0.12043E+04
     0.12270E+04
     0.89767E+03
     0.93433E+03
     0.96711E+03
     0.99900E+03
     0.10308E+04
     0.10595E+04
     0.10866E+04
     0.11147E+04
     0.11431E+04
     0.11734E+04
     0.12041E+04
     0.12331E+04
     0.12588E+04
     0.12854E+04
     0.13113E+04
     0.13378E+04
     0.13610E+04
     0.13772E+04
    -0.45435E+02
    -0.72182E+02
    -0.92916E+02
    -0.73175E+02
    -0.55027E+02
    -0.56292E+02
    -0.69974E+02
    -0.70076E+02
    -0.60139E+02
    -0.61055E+02
    -0.66000E+02
    -0.65039E+02
    -0.11328E+03
    -0.12247E+03
    -0.66154E+02
    -0.65738E+02
    -0.68008E+02
    -0.89657E+02
    -0.59845E+02
    -0.62026E+02
    -0.63326E+02
    -0.63283E+02
    -0.60624E+02
    -0.60823E+02
    -0.64473E+02
    -0.63692E+02
    -0.61034E+02
    -0.62289E+02
    -0.62466E+02
    -0.61355E+02
    -0.71193E+02
    -0.73475E+02
    -0.62621E+02
    -0.63310E+02
    -0.64040E+02
    -0.68578E+02
    -0.64983E+02
    -0.62942E+02
    -0.61019E+02
    -0.63958E+02
    -0.65155E+02
    -0.62797E+02
    -0.63740E+02
    -0.64028E+02
    -0.62919E+02
    -0.64004E+02
    -0.64695E+02
    -0.65575E+02
    -0.69575E+02
    -0.70506E+02
    -0.69517E+02
    -0.70531E+02
    -0.71320E+02
    -0.71988E+02
    -0.64238E+02
    -0.65660E+02
    -0.63808E+02
    -0.65275E+02
    -0.67347E+02
    -0.66400E+02
    -0.66625E+02
    -0.66998E+02
    -0.65560E+02
    -0.66950E+02
    -0.68725E+02
    -0.69199E+02
    -0.72242E+02
    -0.73607E+02
    -0.72741E+02
    -0.73374E+02
    -0.74283E+02
    -0.71225E+02
    -0.65077E+02
    -0.67284E+02
    -0.67552E+02
    -0.68092E+02
    -0.70394E+02
    -0.69038E+02
    -0.69085E+02
    -0.70204E+02
    -0.67639E+02
    -0.68598E+02
    -0.71067E+02
    -0.71308E+02
    -0.71343E+02
    -0.72510E+02
    -0.74007E+02
    -0.72382E+02
    -0.75366E+02
    -0.72537E+02
    -0.66068E+02
    -0.69977E+02
    -0.70563E+02
    -0.68285E+02
    -0.70123E+02
    -0.69466E+02
    -0.68499E+02
    -0.69779E+02
    -0.69821E+02
    -0.70551E+02
    -0.71877E+02
    -0.72701E+02
    -0.72019E+02
    -0.73015E+02
    -0.74614E+02
    -0.72555E+02
    -0.75117E+02
    -0.71729E+02
    -0.66365E+02
    -0.69494E+02
    -0.70307E+02
    -0.69674E+02
    -0.70631E+02
    -0.69137E+02
    -0.68911E+02
    -0.70458E+02
    -0.71231E+02
    -0.72888E+02
    -0.74261E+02
    -0.74045E+02
    -0.73733E+02
    -0.73166E+02
    -0.73095E+02
    -0.70855E+02
    -0.73424E+02
    -0.72768E+02
    -0.66961E+02
    -0.69212E+02
    -0.70967E+02
    -0.71329E+02
    -0.72037E+02
    -0.72122E+02
    -0.72717E+02
    -0.73083E+02
    -0.72765E+02
    -0.73813E+02
    -0.74989E+02
    -0.74032E+02
    -0.72527E+02
    -0.72122E+02
    -0.72518E+02
    -0.72112E+02
    -0.73839E+02
    -0.73473E+02
    -0.67650E+02
    -0.70205E+02
    -0.72075E+02
    -0.72393E+02
    -0.74490E+02
    -0.76451E+02
    -0.74610E+02
    -0.74137E+02
    -0.73357E+02
    -0.73114E+02
    -0.74859E+02
    -0.75508E+02
    -0.73528E+02
    -0.73199E+02
    -0.74988E+02
    -0.73738E+02
    -0.73096E+02
    -0.71997E+02
    -0.69189E+02
    -0.72548E+02
    -0.73071E+02
    -0.71821E+02
    -0.73210E+02
    -0.72439E+02
    -0.72670E+02
    -0.73656E+02
    -0.74588E+02
    -0.75159E+02
    -0.76151E+02
    -0.76528E+02
    -0.74971E+02
    -0.72637E+02
    -0.74094E+02
    -0.74593E+02
    -0.71876E+02
    -0.72036E+02
    -0.66367E+02
    -0.68931E+02
    -0.68014E+02
    -0.69375E+02
    -0.70418E+02
    -0.71066E+02
    -0.72816E+02
    -0.72338E+02
    -0.73261E+02
    -0.75023E+02
    -0.75023E+02
    -0.72659E+02
    -0.72277E+02
    -0.71986E+02
    -0.72447E+02
    -0.73070E+02
    -0.72175E+02
    -0.70784E+02
    -0.62115E+02
    -0.64774E+02
    -0.65055E+02
    -0.67567E+02
    -0.65892E+02
    -0.66028E+02
    -0.68759E+02
    -0.67098E+02
    -0.68264E+02
    -0.68893E+02
    -0.69811E+02
    -0.70708E+02
    -0.69213E+02
    -0.70703E+02
    -0.70936E+02
    -0.69221E+02
    -0.69355E+02
    -0.67462E+02
    -0.59113E+02
    -0.62379E+02
    -0.62253E+02
    -0.63002E+02
    -0.62373E+02
    -0.61863E+02
    -0.63913E+02
    -0.63002E+02
    -0.63258E+02
    -0.62409E+02
    -0.63048E+02
    -0.65755E+02
    -0.63581E+02
    -0.64791E+02
    -0.63990E+02
    -0.61304E+02
    -0.65178E+02
    -0.63014E+02
    -0.56824E+02
    -0.57846E+02
    -0.58882E+02
    -0.57488E+02
    -0.58234E+02
    -0.55829E+02
    -0.58200E+02
    -0.58740E+02
    -0.56339E+02
    -0.57489E+02
    -0.58653E+02
    -0.59134E+02
    -0.57535E+02
    -0.57619E+02
    -0.60074E+02
    -0.55575E+02
    -0.56256E+02
    -0.59406E+02
    -0.59538E+02
    -0.53433E+02
    -0.52896E+02
    -0.54096E+02
    -0.55188E+02
    -0.50093E+02
    -0.51102E+02
    -0.56776E+02
    -0.51149E+02
    -0.50092E+02
    -0.55159E+02
    -0.49650E+02
    -0.47264E+02
    -0.54902E+02
    -0.53824E+02
    -0.45977E+02
    -0.49575E+02
    -0.59753E+02
    -0.43763E+02
    -0.48579E+02
    -0.43165E+02
    -0.44014E+02
    -0.46399E+02
    -0.44030E+02
    -0.47431E+02
    -0.49047E+02
    -0.49931E+02
    -0.50735E+02
    -0.45566E+02
    -0.43345E+02
    -0.49329E+02
    -0.53238E+02
    -0.46031E+02
    -0.44233E+02
    -0.54675E+02
    -0.57457E+02
    -0.15847E+02
    -0.14186E+02
    -0.23491E+02
    -0.22984E+02
    -0.38200E+02
    -0.25792E+02
    -0.32759E+02
    -0.45836E+02
    -0.49030E+02
    -0.39998E+02
    -0.37747E+02
    -0.46269E+02
    -0.53633E+02
    -0.53900E+02
    -0.49611E+02
    -0.49904E+02
    -0.52209E+02
    -0.53065E+02
     0.74312E+02
     0.75428E+02
     0.13058E+02
     0.24847E+02
     0.33719E+01
    -0.12949E+02
    -0.18487E+02
    -0.32563E+02
    -0.21293E+02
    -0.23638E+02
    -0.36281E+02
    -0.44010E+02
    -0.54168E+02
    -0.70181E+02
    -0.62481E+02
    -0.44412E+02
    -0.45773E+02
    -0.47413E+02
     0.20072E+03
     0.20088E+03
     0.12522E+03
     0.10859E+03
     0.81914E+02
     0.49928E+02
     0.67864E+02
     0.30137E+02
     0.86778E+01
    -0.16763E+00
    -0.11622E+02
    -0.21331E+02
    -0.40564E+02
    -0.90402E+02
    -0.74515E+02
    -0.25053E+02
    -0.26540E+02
    -0.32167E+02
     0.35358E+03
     0.31469E+03
     0.26887E+03
     0.25472E+03
     0.24710E+03
     0.18539E+03
     0.17308E+03
     0.12889E+03
     0.96385E+02
     0.81992E+02
     0.64435E+02
     0.48500E+02
     0.21243E+02
    -0.64197E+02
    -0.58871E+02
     0.15254E+02
     0.21592E+02
     0.11470E+02
     0.52132E+03
     0.48690E+03
     0.44504E+03
     0.42131E+03
     0.39136E+03
     0.34521E+03
     0.31593E+03
     0.27759E+03
     0.24871E+03
     0.22701E+03
     0.20352E+03
     0.18668E+03
     0.15813E+03
     0.83239E+02
     0.18528E+02
     0.48559E+02
     0.90946E+02
     0.85685E+02
     0.68668E+03
     0.65628E+03
     0.62328E+03
     0.59566E+03
     0.55967E+03
     0.52616E+03
     0.49770E+03
     0.46801E+03
     0.43882E+03
     0.41367E+03
     0.38941E+03
     0.36738E+03
     0.33703E+03
     0.29512E+03
     0.20818E+03
     0.16130E+03
     0.18710E+03
     0.20327E+03
     0.87138E+03
     0.84300E+03
     0.81355E+03
     0.78445E+03
     0.75220E+03
     0.72046E+03
     0.69097E+03
     0.66318E+03
     0.63505E+03
     0.60662E+03
     0.57909E+03
     0.55622E+03
     0.51832E+03
     0.47331E+03
     0.40806E+03
     0.37090E+03
     0.37442E+03
     0.37175E+03
     0.10498E+04
     0.10237E+04
     0.99594E+03
     0.96644E+03
     0.93587E+03
     0.90452E+03
     0.87506E+03
     0.84930E+03
     0.82266E+03
     0.79564E+03
     0.77120E+03
     0.74867E+03
     0.72106E+03
     0.68684E+03
     0.64499E+03
     0.60959E+03
     0.58665E+03
     0.56460E+03
     0.12231E+04
     0.12002E+04
     0.11742E+04
     0.11471E+04
     0.11205E+04
     0.10937E+04
     0.10675E+04
     0.10447E+04
     0.10204E+04
     0.99621E+03
     0.97542E+03
     0.95198E+03
     0.92460E+03
     0.89184E+03
     0.85335E+03
     0.81453E+03
     0.77851E+03
     0.74618E+03
     0.13791E+04
     0.13627E+04
     0.13395E+04
     0.13132E+04
     0.12870E+04
     0.12602E+04
     0.12353E+04
     0.12070E+04
     0.11760E+04
     0.11447E+04
     0.11164E+04
     0.10893E+04
     0.10631E+04
     0.10349E+04
     0.10022E+04
     0.96850E+03
     0.93415E+03
     0.89681E+03
    -0.31730E+02
    -0.20773E+02
    -0.59513E+02
    -0.24955E+02
    -0.25378E+02
    -0.21095E+02
    -0.76079E+02
    -0.74410E+02
    -0.61379E+02
    -0.64019E+02
    -0.60887E+02
    -0.63455E+02
    -0.59042E+02
    -0.65989E+02
    -0.76914E+02
    -0.78239E+02
    -0.57506E+02
    -0.61077E+02
    -0.54774E+02
    -0.57029E+02
    -0.53657E+02
    -0.63831E+02
    -0.81930E+02
    -0.12733E+03
    -0.60038E+02
    -0.65366E+02
    -0.10378E+03
    -0.98800E+02
    -0.62974E+02
    -0.65604E+02
    -0.58190E+02
    -0.61348E+02
    -0.60784E+02
    -0.73385E+02
    -0.22994E+02
    -0.35104E+02
    -0.32882E+02
    -0.42689E+02
    -0.27839E+02
    -0.35188E+02
    -0.25030E+02
    -0.33967E+02
    -0.33050E+02
    -0.58434E+02
    -0.62191E+02
    -0.77822E+02
    -0.56040E+02
    -0.62318E+02
    -0.45293E+02
    -0.56050E+02
    -0.59177E+02
    -0.69264E+02
    -0.54781E+02
    -0.87168E+02
    -0.52590E+02
    -0.65933E+02
    -0.42430E+02
    -0.48615E+02
    -0.40997E+02
    -0.53150E+02
    -0.53795E+02
    -0.68221E+02
    -0.61478E+02
    -0.68742E+02
    -0.53605E+02
    -0.58810E+02
    -0.53789E+02
    -0.60005E+02
    -0.61275E+02
    -0.65569E+02
    -0.52157E+02
    -0.46528E+02
    -0.38186E+02
    -0.36564E+02
    -0.32893E+02
    -0.32929E+02
    -0.30562E+02
    -0.30633E+02
    -0.28647E+02
    -0.29148E+02
    -0.27705E+02
    -0.28157E+02
    -0.26702E+02
    -0.27347E+02
    -0.26236E+02
    -0.27257E+02
    -0.26345E+02
    -0.27166E+02
    -0.25939E+02
    -0.26839E+02
    -0.26188E+02
    -0.27332E+02
    -0.26377E+02
    -0.27544E+02
    -0.27318E+02
    -0.29547E+02
    -0.29409E+02
    -0.32840E+02
    -0.33950E+02
    -0.42656E+02
    -0.62287E+02
    -0.69537E+02
    -0.48466E+02
    -0.44397E+02
    -0.48496E+02
    -0.47294E+02
    -0.41913E+02
    -0.47654E+02
    -0.41828E+02
    -0.60498E+02
    -0.45415E+02
    -0.62991E+02
    -0.51904E+02
    -0.55730E+02
    -0.50710E+02
    -0.42573E+02
    -0.39338E+02
    -0.40681E+02
    -0.35510E+02
    -0.39713E+02
    -0.34895E+02
    -0.41697E+02
    -0.34374E+02
    -0.44948E+02
    -0.36767E+02
    -0.49591E+02
    -0.40662E+02
    -0.17752E+02
    -0.24021E+02
    -0.27289E+02
    -0.20853E+02
    -0.27380E+02
    -0.22700E+02
    -0.28858E+02
    -0.23670E+02
    -0.34706E+02
    -0.27238E+02
    -0.40127E+02
    -0.32668E+02
    -0.39910E+02
    -0.34998E+02
    -0.42961E+02
    -0.35869E+02
    -0.48919E+02
    -0.39864E+02
    -0.23377E+02
    -0.23065E+02
    -0.22635E+02
    -0.21717E+02
    -0.19977E+02
    -0.20094E+02
    -0.18857E+02
    -0.17700E+02
    -0.23451E+02
    -0.18697E+02
    -0.33297E+02
    -0.24702E+02
    -0.32196E+02
    -0.27716E+02
    -0.32913E+02
    -0.27515E+02
    -0.43135E+02
    -0.31317E+02
    -0.29552E+02
    -0.30783E+02
    -0.26704E+02
    -0.26516E+02
    -0.25386E+02
    -0.24854E+02
    -0.24592E+02
    -0.24071E+02
    -0.24398E+02
    -0.23745E+02
    -0.24208E+02
    -0.23345E+02
    -0.24581E+02
    -0.23545E+02
    -0.24420E+02
    -0.23571E+02
    -0.24975E+02
    -0.24043E+02
    -0.25846E+02
    -0.24559E+02
    -0.26884E+02
    -0.25590E+02
    -0.27920E+02
    -0.26414E+02
    -0.29919E+02
    -0.27800E+02
    -0.34422E+02
    -0.30503E+02
    -0.36093E+02
    -0.52662E+02
    -0.39688E+02
    -0.53048E+02
    -0.45569E+02
    -0.21312E+02
    -0.21101E+02
    -0.15811E+02
    -0.14883E+02
    -0.34517E+02
    -0.32852E+02
    -0.17644E+02
    -0.16309E+02
    -0.18606E+02
    -0.19740E+02
    -0.20078E+02
    -0.18406E+02
    -0.34181E+02
    -0.31540E+02
    -0.35997E+02
    -0.32227E+02
    -0.37265E+02
    -0.33431E+02
    -0.39859E+02
    -0.34572E+02
    -0.27644E+02
    -0.28816E+02
    -0.28071E+02
    -0.26639E+02
    -0.27696E+02
    -0.25899E+02
    -0.28298E+02
    -0.25944E+02
    -0.32342E+02
    -0.26930E+02
    -0.16372E+02
    -0.16605E+02
    -0.16754E+02
    -0.15880E+02
    -0.19834E+02
    -0.17206E+02
    -0.20964E+02
    -0.20350E+02
    -0.18487E+02