# vtk DataFile Version 3.14.1
BMesh by KP LIAO
ASCII
DATASET UNSTRUCTURED_GRID
POINTS 	      8150 	FLOAT
    5.19264 	   2.72216 	   4.14565
    5.19532 	   2.59595 	   4.03449
    5.19783 	   2.52866 	   3.93001
    5.20220 	   2.50148 	   3.74858
    5.55319 	   2.50151 	   3.75292
    5.54353 	   2.81665 	   4.15464
    5.19784 	   2.47220 	   3.92968
    5.19535 	   2.40369 	   4.03337
    5.19271 	   2.27620 	   4.14305
    5.54362 	   2.18170 	   4.15095
    6.24533 	   2.82584 	   4.17158
    6.25499 	   2.50151 	   3.76980
    6.24542 	   2.17252 	   4.16778
    7.89252 	   2.50151 	   3.80920
    7.88294 	   2.17252 	   4.20717
    7.88285 	   2.82584 	   4.21097
    9.28645 	   2.82584 	   4.24474
    9.29611 	   2.50151 	   3.84297
    9.28654 	   2.17252 	   4.24094
    9.65680 	   2.50105 	   3.92966
    9.65686 	   2.49440 	   3.92701
    9.58620 	   2.49428 	   3.94638
    9.60280 	   2.50065 	   3.99705
    9.58499 	   2.48892 	   3.99655
    9.55883 	   2.48426 	   3.98920
    9.58803 	   2.50139 	   3.87079
    9.56166 	   2.50143 	   3.86269
    9.52681 	   2.47835 	   3.98280
    9.52987 	   2.50147 	   3.85575
    9.58620 	   2.50761 	   3.94646
    9.65686 	   2.50773 	   3.92709
    9.58499 	   2.51239 	   3.99669
    9.55882 	   2.51712 	   3.98939
    9.52681 	   2.52310 	   3.98306
    9.82896 	   2.82584 	   4.25780
    9.63734 	   2.82584 	   4.25319
    9.83375 	   2.50033 	   4.05862
    9.64301 	   2.50054 	   4.01777
    9.52038 	   2.82584 	   4.25037
    9.63744 	   2.17252 	   4.24939
    9.82905 	   2.17252 	   4.25399
    9.52047 	   2.17252 	   4.24657
    9.42456 	   2.17252 	   4.24426
    9.42447 	   2.82584 	   4.24806
    9.82900 	   2.49918 	   4.25590
    9.65737 	   2.50119 	   3.90567
    9.43414 	   2.50151 	   3.84629
    5.13931 	   2.51737 	   3.92977
    5.14076 	   2.52738 	   3.87011
    5.14353 	   2.50144 	   3.75484
    5.14076 	   2.47415 	   3.86980
    5.13932 	   2.48347 	   3.92958
    5.08213 	   2.47797 	   3.87482
    5.08116 	   2.49133 	   3.91489
    5.08084 	   2.50042 	   3.92827
    5.08116 	   2.50967 	   3.91499
    5.08212 	   2.52349 	   3.87508
    5.07074 	   2.50050 	   3.91469
    5.02364 	   2.52133 	   3.87366
    5.02268 	   2.50050 	   3.91353
    5.02364 	   2.48013 	   3.87343
    5.08469 	   2.50135 	   3.76838
    5.02558 	   2.50120 	   3.79280
    4.94626 	   2.50073 	   3.87168
    5.13416 	   2.69155 	   4.14406
    5.13421 	   2.30681 	   4.14182
    4.93516 	   2.49918 	   4.13816
    5.13674 	   2.57064 	   4.03672
    5.02474 	   2.49980 	   4.03362
    5.13676 	   2.42896 	   4.03590
    5.21109 	   2.73060 	   4.14565
    5.22971 	   2.73863 	   4.14589
    5.24850 	   2.74625 	   4.14636
    5.26744 	   2.75346 	   4.14702
    5.28654 	   2.76025 	   4.14779
    5.30577 	   2.76663 	   4.14858
    5.32515 	   2.77259 	   4.14931
    5.34464 	   2.77815 	   4.14994
    5.36424 	   2.78335 	   4.15047
    5.38393 	   2.78820 	   4.15091
    5.40369 	   2.79273 	   4.15129
    5.42352 	   2.79699 	   4.15166
    5.44340 	   2.80097 	   4.15205
    5.46333 	   2.80468 	   4.15248
    5.48331 	   2.80812 	   4.15297
    5.50334 	   2.81128 	   4.15350
    5.52341 	   2.81413 	   4.15406
    5.19292 	   2.70727 	   4.13433
    5.19320 	   2.69263 	   4.12270
    5.19348 	   2.67825 	   4.11074
    5.19378 	   2.66409 	   4.09851
    5.19408 	   2.65011 	   4.08609
    5.19438 	   2.63626 	   4.07352
    5.19469 	   2.62262 	   4.06073
    5.19500 	   2.60920 	   4.04770
    5.19563 	   2.58325 	   4.02153
    5.19595 	   2.57070 	   4.00844
    5.19627 	   2.55866 	   3.99487
    5.19662 	   2.54781 	   3.98033
    5.19700 	   2.53868 	   3.96467
    5.19740 	   2.53206 	   3.94780
    5.19830 	   2.52808 	   3.91037
    5.19878 	   2.52963 	   3.89078
    5.19924 	   2.53257 	   3.87134
    5.19971 	   2.53557 	   3.85191
    5.20018 	   2.53739 	   3.83235
    5.20065 	   2.53674 	   3.81271
    5.20112 	   2.53384 	   3.79328
    5.20157 	   2.52799 	   3.77454
    5.20198 	   2.51826 	   3.75752
    5.53369 	   2.50151 	   3.75234
    5.51419 	   2.50151 	   3.75179
    5.49469 	   2.50151 	   3.75128
    5.47518 	   2.50151 	   3.75083
    5.45568 	   2.50151 	   3.75044
    5.43617 	   2.50151 	   3.75010
    5.41667 	   2.50151 	   3.74980
    5.39716 	   2.50151 	   3.74947
    5.37765 	   2.50150 	   3.74909
    5.35815 	   2.50150 	   3.74859
    5.33865 	   2.50151 	   3.74798
    5.31915 	   2.50151 	   3.74728
    5.29965 	   2.50151 	   3.74659
    5.28015 	   2.50151 	   3.74607
    5.26064 	   2.50151 	   3.74588
    5.24114 	   2.50150 	   3.74619
    5.22165 	   2.50149 	   3.74708
    5.54397 	   2.80867 	   4.13638
    5.54439 	   2.79899 	   4.11897
    5.54478 	   2.78772 	   4.10253
    5.54516 	   2.77548 	   4.08680
    5.54553 	   2.76253 	   4.07164
    5.54588 	   2.74908 	   4.05693
    5.54623 	   2.73529 	   4.04253
    5.54657 	   2.72123 	   4.02840
    5.54690 	   2.70690 	   4.01453
    5.54724 	   2.69268 	   4.00056
    5.54758 	   2.67892 	   3.98614
    5.54794 	   2.66564 	   3.97127
    5.54831 	   2.65277 	   3.95605
    5.54868 	   2.64038 	   3.94044
    5.54907 	   2.62841 	   3.92450
    5.54945 	   2.61658 	   3.90845
    5.54984 	   2.60476 	   3.89240
    5.55023 	   2.59296 	   3.87633
    5.55061 	   2.58116 	   3.86026
    5.55100 	   2.56964 	   3.84399
    5.55141 	   2.55896 	   3.82716
    5.55184 	   2.54991 	   3.80942
    5.55228 	   2.54284 	   3.79079
    5.55271 	   2.53394 	   3.77302
    5.55305 	   2.52011 	   3.75882
    5.19831 	   2.47301 	   3.91005
    5.19878 	   2.47169 	   3.89044
    5.19925 	   2.46896 	   3.87097
    5.19972 	   2.46619 	   3.85151
    5.20019 	   2.46460 	   3.83193
    5.20066 	   2.46548 	   3.81229
    5.20113 	   2.46861 	   3.79290
    5.20158 	   2.47468 	   3.77423
    5.20199 	   2.48461 	   3.75732
    5.19565 	   2.41654 	   4.02056
    5.19597 	   2.42925 	   4.00761
    5.19629 	   2.44145 	   3.99419
    5.19663 	   2.45246 	   3.97977
    5.19701 	   2.46177 	   3.96422
    5.19741 	   2.46859 	   3.94743
    5.19297 	   2.29122 	   4.13191
    5.19325 	   2.30600 	   4.12045
    5.19353 	   2.32051 	   4.10866
    5.19382 	   2.33481 	   4.09659
    5.19412 	   2.34894 	   4.08434
    5.19442 	   2.36293 	   4.07193
    5.19472 	   2.37672 	   4.05930
    5.19503 	   2.39029 	   4.04643
    5.21115 	   2.26777 	   4.14295
    5.22978 	   2.25974 	   4.14310
    5.24857 	   2.25212 	   4.14349
    5.26751 	   2.24490 	   4.14406
    5.28661 	   2.23811 	   4.14475
    5.30585 	   2.23173 	   4.14546
    5.32522 	   2.22577 	   4.14613
    5.34472 	   2.22020 	   4.14670
    5.36432 	   2.21501 	   4.14716
    5.38401 	   2.21016 	   4.14754
    5.40377 	   2.20562 	   4.14787
    5.42360 	   2.20137 	   4.14819
    5.44348 	   2.19739 	   4.14854
    5.46342 	   2.19368 	   4.14893
    5.48340 	   2.19024 	   4.14937
    5.50343 	   2.18708 	   4.14986
    5.52350 	   2.18423 	   4.15039
    5.54406 	   2.18991 	   4.13278
    5.54447 	   2.19979 	   4.11548
    5.54486 	   2.21124 	   4.09917
    5.54524 	   2.22367 	   4.08359
    5.54560 	   2.23680 	   4.06859
    5.54595 	   2.25041 	   4.05403
    5.54629 	   2.26437 	   4.03979
    5.54663 	   2.27859 	   4.02582
    5.54696 	   2.29308 	   4.01213
    5.54729 	   2.30746 	   3.99832
    5.54763 	   2.32139 	   3.98406
    5.54799 	   2.33484 	   3.96935
    5.54835 	   2.34789 	   3.95427
    5.54872 	   2.36046 	   3.93881
    5.54910 	   2.37262 	   3.92301
    5.54949 	   2.38463 	   3.90710
    5.54987 	   2.39664 	   3.89119
    5.55025 	   2.40863 	   3.87526
    5.55063 	   2.42061 	   3.85933
    5.55102 	   2.43232 	   3.84319
    5.55142 	   2.44319 	   3.82649
    5.55185 	   2.45245 	   3.80885
    5.55229 	   2.45974 	   3.79030
    5.55272 	   2.46884 	   3.77264
    5.55306 	   2.48284 	   3.75860
    5.19270 	   2.30243 	   4.14321
    5.19270 	   2.32866 	   4.14336
    5.19270 	   2.35490 	   4.14351
    5.19269 	   2.38113 	   4.14366
    5.19269 	   2.40736 	   4.14382
    5.19268 	   2.43360 	   4.14397
    5.19268 	   2.45983 	   4.14412
    5.19268 	   2.48606 	   4.14427
    5.19267 	   2.51230 	   4.14443
    5.19267 	   2.53853 	   4.14458
    5.19267 	   2.56476 	   4.14473
    5.19266 	   2.59100 	   4.14489
    5.19266 	   2.61723 	   4.14504
    5.19266 	   2.64346 	   4.14519
    5.19265 	   2.66970 	   4.14534
    5.19265 	   2.69593 	   4.14550
    5.54361 	   2.24520 	   4.15132
    5.54360 	   2.30869 	   4.15169
    5.54359 	   2.37219 	   4.15205
    5.54358 	   2.43568 	   4.15242
    5.54357 	   2.49918 	   4.15279
    5.54357 	   2.56267 	   4.15316
    5.54356 	   2.62617 	   4.15353
    5.54355 	   2.68966 	   4.15390
    5.54354 	   2.75316 	   4.15427
    6.24589 	   2.82598 	   4.14824
    6.24645 	   2.82611 	   4.12490
    6.24701 	   2.82625 	   4.10156
    6.24757 	   2.82638 	   4.07822
    6.24813 	   2.82652 	   4.05489
    6.24869 	   2.82636 	   4.03155
    6.24925 	   2.82478 	   4.00827
    6.24981 	   2.82091 	   3.98527
    6.25034 	   2.81410 	   3.96297
    6.25085 	   2.80393 	   3.94199
    6.25132 	   2.79130 	   3.92237
    6.25177 	   2.77713 	   3.90382
    6.25219 	   2.76192 	   3.88612
    6.25261 	   2.74614 	   3.86892
    6.25301 	   2.73010 	   3.85197
    6.25342 	   2.71384 	   3.83522
    6.25381 	   2.69731 	   3.81874
    6.25419 	   2.68016 	   3.80291
    6.25453 	   2.66151 	   3.78890
    6.25478 	   2.64067 	   3.77847
    6.25492 	   2.61812 	   3.77260
    6.25497 	   2.59489 	   3.77049
    6.25498 	   2.57154 	   3.77021
    6.25498 	   2.54820 	   3.77007
    6.25499 	   2.52485 	   3.76994
    5.58233 	   2.82058 	   4.15576
    5.62124 	   2.82332 	   4.15682
    5.66021 	   2.82499 	   4.15780
    5.69921 	   2.82580 	   4.15869
    5.73822 	   2.82600 	   4.15952
    5.77723 	   2.82584 	   4.16032
    5.81624 	   2.82553 	   4.16112
[...]
CELL_DATA 	      9403
SCALARS 	cell_scalars 	FLOAT 	         1
LOOKUP_TABLE 	DEFAULT
    -0.55436E+02
    -0.47654E+02
    -0.42094E+02
    -0.47869E+02
    -0.38627E+02
    -0.38510E+02
    -0.51689E+02
    -0.45963E+02
    -0.37512E+02
    -0.48536E+02
    -0.58667E+02
    -0.55979E+02
    -0.52725E+02
    -0.53185E+02
    -0.56350E+02
    -0.61212E+02
    -0.59297E+02
    -0.59237E+02
    -0.61850E+02
    -0.61631E+02
    -0.57068E+02
    -0.61026E+02
    -0.60871E+02
    -0.60844E+02
    -0.62660E+02
    -0.60553E+02
    -0.58903E+02
    -0.64561E+02
    -0.65137E+02
    -0.62593E+02
    -0.65887E+02
    -0.70434E+02
    -0.65408E+02
    -0.64933E+02
    -0.64317E+02
    -0.67341E+02
    -0.60498E+02
    -0.61843E+02
    -0.60013E+02
    -0.62313E+02
    -0.63400E+02
    -0.63341E+02
    -0.66355E+02
    -0.65176E+02
    -0.64699E+02
    -0.67107E+02
    -0.67068E+02
    -0.66283E+02
    -0.71013E+02
    -0.71369E+02
    -0.69183E+02
    -0.70807E+02
    -0.73086E+02
    -0.67855E+02
    -0.64319E+02
    -0.65354E+02
    -0.64530E+02
    -0.65329E+02
    -0.67499E+02
    -0.67009E+02
    -0.69145E+02
    -0.69256E+02
    -0.68236E+02
    -0.68590E+02
    -0.69141E+02
    -0.68571E+02
    -0.69345E+02
    -0.69293E+02
    -0.71422E+02
    -0.73124E+02
    -0.69387E+02
    -0.67777E+02
    -0.64697E+02
    -0.66715E+02
    -0.66825E+02
    -0.68008E+02
    -0.70874E+02
    -0.69120E+02
    -0.71912E+02
    -0.71586E+02
    -0.70475E+02
    -0.71416E+02
    -0.71266E+02
    -0.70235E+02
    -0.69368E+02
    -0.70625E+02
    -0.72138E+02
    -0.71694E+02
    -0.69378E+02
    -0.69568E+02
    -0.64605E+02
    -0.66192E+02
    -0.66160E+02
    -0.67264E+02
    -0.69070E+02
    -0.68260E+02
    -0.70607E+02
    -0.69940E+02
    -0.69986E+02
    -0.71628E+02
    -0.71061E+02
    -0.70366E+02
    -0.70362E+02
    -0.71057E+02
    -0.69922E+02
    -0.72067E+02
    -0.74045E+02
    -0.70998E+02
    -0.65192E+02
    -0.65345E+02
    -0.66393E+02
    -0.65940E+02
    -0.68295E+02
    -0.66690E+02
    -0.67116E+02
    -0.68424E+02
    -0.68896E+02
    -0.70011E+02
    -0.69162E+02
    -0.70449E+02
    -0.71254E+02
    -0.68911E+02
    -0.68702E+02
    -0.71174E+02
    -0.71941E+02
    -0.69489E+02
    -0.59301E+02
    -0.60530E+02
    -0.61851E+02
    -0.60318E+02
    -0.65544E+02
    -0.61686E+02
    -0.62057E+02
    -0.66502E+02
    -0.64112E+02
    -0.65923E+02
    -0.67202E+02
    -0.65493E+02
    -0.66117E+02
    -0.66273E+02
    -0.65262E+02
    -0.66766E+02
    -0.66995E+02
    -0.66326E+02
    -0.43436E+02
    -0.43373E+02
    -0.44807E+02
    -0.41332E+02
    -0.47218E+02
    -0.47307E+02
    -0.48555E+02
    -0.54689E+02
    -0.48421E+02
    -0.48691E+02
    -0.57087E+02
    -0.51879E+02
    -0.52046E+02
    -0.58452E+02
    -0.52831E+02
    -0.52122E+02
    -0.58892E+02
    -0.57105E+02
    -0.37324E+00
     0.12894E+01
    -0.76324E+01
     0.70974E+01
    -0.11238E+01
    -0.14688E+02
     0.58611E+01
    -0.28240E+01
    -0.16958E+02
    -0.35987E+01
    -0.84295E+01
    -0.14369E+02
    -0.18749E+01
    -0.11206E+02
    -0.15404E+02
    -0.12148E+02
    -0.26645E+02
    -0.24240E+02
     0.83335E+02
     0.85266E+02
     0.76515E+02
     0.95574E+02
     0.93435E+02
     0.70879E+02
     0.99282E+02
     0.99611E+02
     0.68931E+02
     0.82738E+02
     0.77836E+02
     0.59666E+02
     0.70491E+02
     0.62192E+02
     0.56288E+02
     0.60520E+02
     0.40347E+02
     0.40637E+02
     0.23278E+03
     0.22620E+03
     0.21388E+03
     0.22592E+03
     0.22039E+03
     0.19730E+03
     0.21528E+03
     0.20973E+03
     0.18502E+03
     0.20236E+03
     0.18864E+03
     0.15794E+03
     0.16229E+03
     0.15070E+03
     0.14190E+03
     0.14547E+03
     0.13743E+03
     0.13846E+03
     0.34796E+03
     0.34773E+03
     0.33376E+03
     0.31016E+03
     0.32211E+03
     0.31451E+03
     0.29930E+03
     0.30525E+03
     0.30125E+03
     0.28612E+03
     0.27838E+03
     0.27601E+03
     0.26549E+03
     0.25299E+03
     0.25052E+03
     0.24567E+03
     0.24462E+03
     0.24951E+03
     0.42685E+03
     0.43424E+03
     0.43955E+03
     0.39794E+03
     0.40998E+03
     0.41131E+03
     0.39740E+03
     0.40091E+03
     0.39100E+03
     0.38970E+03
     0.39347E+03
     0.37321E+03
     0.37273E+03
     0.38443E+03
     0.36704E+03
     0.36167E+03
     0.37180E+03
     0.36897E+03
     0.61492E+03
     0.57318E+03
     0.52640E+03
     0.55444E+03
     0.57315E+03
     0.51488E+03
     0.50709E+03
     0.53652E+03
     0.50802E+03
     0.50094E+03
     0.51555E+03
     0.50740E+03
     0.50799E+03
     0.50266E+03
     0.50281E+03
     0.51791E+03
     0.50154E+03
     0.48914E+03
     0.76708E+03
     0.75373E+03
     0.70830E+03
     0.70300E+03
     0.72955E+03
     0.72105E+03
     0.65296E+03
     0.64618E+03
     0.68140E+03
     0.67430E+03
     0.64962E+03
     0.63832E+03
     0.65609E+03
     0.65553E+03
     0.65340E+03
     0.64519E+03
     0.63688E+03
     0.65231E+03
     0.90944E+03
     0.91858E+03
     0.90804E+03
     0.88205E+03
     0.89260E+03
     0.89602E+03
     0.87654E+03
     0.81709E+03
     0.81027E+03
     0.83499E+03
     0.83981E+03
     0.79864E+03
     0.79786E+03
     0.80338E+03
     0.80460E+03
     0.79925E+03
     0.79087E+03
     0.79436E+03
     0.10622E+04
     0.10713E+04
     0.10791E+04
     0.10899E+04
     0.10792E+04
     0.10652E+04
     0.10591E+04
     0.10455E+04
     0.99291E+03
     0.97126E+03
     0.97355E+03
     0.97984E+03
     0.98727E+03
     0.95031E+03
     0.93860E+03
     0.95969E+03
     0.94516E+03
     0.93357E+03
     0.12199E+04
     0.12251E+04
     0.12270E+04
     0.12841E+04
     0.12616E+04
     0.12241E+04
     0.12152E+04
     0.12125E+04
     0.11929E+04
     0.11714E+04
     0.11166E+04
     0.11146E+04
     0.11393E+04
     0.11253E+04
     0.11151E+04
     0.11238E+04
     0.10886E+04
     0.10725E+04
     0.13809E+04
     0.13787E+04
     0.13786E+04
     0.14352E+04
     0.14107E+04
     0.13785E+04
     0.13694E+04
     0.13630E+04
     0.13583E+04
     0.13503E+04
     0.13203E+04
     0.13097E+04
     0.13023E+04
     0.12522E+04
     0.12413E+04
     0.12741E+04
     0.12796E+04
     0.12608E+04
     0.15460E+04
     0.15458E+04
     0.15472E+04
     0.15552E+04
     0.15373E+04
     0.15254E+04
     0.15218E+04
     0.15167E+04
     0.15121E+04
     0.15073E+04
     0.14931E+04
     0.14798E+04
     0.14696E+04
     0.14467E+04
     0.14317E+04
     0.14367E+04
     0.14392E+04
     0.14207E+04
     0.17182E+04
     0.17341E+04
     0.17514E+04
     0.17254E+04
     0.16832E+04
     0.16559E+04
     0.16517E+04
     0.16530E+04
     0.16562E+04
     0.16599E+04
     0.16546E+04
     0.16461E+04
     0.16390E+04
     0.16290E+04
     0.16119E+04
     0.15990E+04
     0.15890E+04
     0.15734E+04
     0.18798E+04
     0.19088E+04
     0.19340E+04
     0.19226E+04
     0.18894E+04
     0.18587E+04
     0.18447E+04
     0.18375E+04
     0.18338E+04
     0.18331E+04
     0.18289E+04
     0.18228E+04
     0.18160E+04
     0.18048E+04
     0.17858E+04
     0.17652E+04
     0.17434E+04
     0.17225E+04
     0.19980E+04
     0.20524E+04
     0.20846E+04
     0.20922E+04
     0.20855E+04
     0.20713E+04
     0.20553E+04
     0.20403E+04
     0.20262E+04
     0.20145E+04
     0.20044E+04
     0.19956E+04
     0.19866E+04
     0.19762E+04
     0.19630E+04
     0.19485E+04
     0.19319E+04
     0.19151E+04
     0.21970E+04
     0.22464E+04
     0.22672E+04
     0.22661E+04
     0.22573E+04
     0.22439E+04
     0.22290E+04
     0.22153E+04
     0.22016E+04
     0.21896E+04
     0.21775E+04
     0.21648E+04
     0.21525E+04
     0.21425E+04
     0.21336E+04
     0.21248E+04
     0.21145E+04
     0.21019E+04
     0.25206E+04
     0.24754E+04
     0.24519E+04
     0.24282E+04
     0.24000E+04
     0.23814E+04
     0.23675E+04
     0.23610E+04
     0.23569E+04
     0.23544E+04
     0.23481E+04
     0.23306E+04
     0.23108E+04
     0.22984E+04
     0.22903E+04
     0.22833E+04
     0.22753E+04
     0.22630E+04
    -0.50116E+02
    -0.54128E+02
    -0.50857E+02
    -0.49188E+02
    -0.46499E+02
    -0.42926E+02
    -0.32352E+02
    -0.47403E+02
    -0.55475E+02
    -0.47916E+02
    -0.43730E+02
    -0.54636E+02
    -0.56846E+02
    -0.57606E+02
    -0.68592E+02
    -0.63493E+02
    -0.61275E+02
    -0.63820E+02
    -0.70069E+02
    -0.69121E+02
    -0.65395E+02
    -0.62001E+02
    -0.62585E+02
    -0.69031E+02
    -0.65860E+02
    -0.65669E+02
    -0.67906E+02
    -0.65914E+02
    -0.62031E+02
    -0.64608E+02
    -0.63962E+02
    -0.60978E+02
    -0.64855E+02
    -0.61669E+02
    -0.59352E+02
    -0.61381E+02
    -0.69343E+02
    -0.69270E+02
    -0.72696E+02
    -0.68085E+02
    -0.68122E+02
    -0.69739E+02
    -0.71224E+02
    -0.68626E+02
    -0.69759E+02
    -0.68704E+02
    -0.65774E+02
    -0.68725E+02
    -0.67622E+02
    -0.64256E+02
    -0.66512E+02
    -0.62557E+02
    -0.61975E+02
    -0.61228E+02
    -0.70014E+02
    -0.69915E+02
    -0.71032E+02
    -0.71101E+02
    -0.69671E+02
    -0.71329E+02
    -0.72153E+02
    -0.69977E+02
    -0.69908E+02
    -0.70326E+02
    -0.68611E+02
    -0.69528E+02
    -0.67576E+02
    -0.66285E+02
    -0.67040E+02
    -0.65041E+02
    -0.65387E+02
    -0.64489E+02
    -0.71853E+02
    -0.70568E+02
    -0.70068E+02
    -0.72355E+02
    -0.71381E+02
    -0.72261E+02
    -0.72193E+02
    -0.71493E+02
    -0.72355E+02
    -0.71903E+02
    -0.70781E+02
    -0.72213E+02
    -0.69008E+02
    -0.69108E+02
    -0.69277E+02
    -0.67195E+02
    -0.68209E+02
    -0.66134E+02
    -0.71023E+02
    -0.72364E+02
    -0.71074E+02
    -0.72081E+02
    -0.72273E+02
    -0.74376E+02
    -0.73734E+02
    -0.71230E+02
    -0.72350E+02
    -0.72032E+02
    -0.70202E+02
    -0.71409E+02
    -0.68145E+02
    -0.67782E+02
    -0.66434E+02
    -0.64645E+02
    -0.65724E+02
    -0.64000E+02
    -0.68663E+02
    -0.70260E+02
    -0.70177E+02
    -0.69788E+02
    -0.68840E+02
    -0.69730E+02
    -0.71591E+02
    -0.69320E+02
    -0.69395E+02
    -0.69486E+02
    -0.68454E+02
    -0.68024E+02
    -0.65979E+02
    -0.66493E+02
    -0.64547E+02
    -0.63751E+02
    -0.64248E+02
    -0.63913E+02
    -0.64382E+02
    -0.64750E+02
    -0.65465E+02
    -0.64440E+02
    -0.64063E+02
    -0.63566E+02
    -0.63070E+02
    -0.64176E+02
    -0.64478E+02
    -0.63129E+02
    -0.65921E+02
    -0.62938E+02
    -0.59473E+02
    -0.64434E+02
    -0.59221E+02
    -0.59360E+02
    -0.59906E+02
    -0.55318E+02
    -0.50231E+02
    -0.53447E+02
    -0.48243E+02
    -0.46617E+02
    -0.52725E+02
    -0.46319E+02
    -0.43322E+02
    -0.51810E+02
    -0.47011E+02
    -0.43910E+02
    -0.50024E+02
    -0.42730E+02
    -0.40747E+02
    -0.44059E+02
    -0.35596E+02
    -0.36911E+02
    -0.35246E+02
    -0.33793E+02
    -0.11907E+02
    -0.19126E+02
    -0.46050E+01
    -0.22266E+01
    -0.28783E+01
     0.20985E+02
     0.71440E+01
     0.77763E-02
     0.14316E+02
     0.20862E+01
     0.75750E+01
     0.19179E+02
    -0.28491E+01
     0.10392E+02
     0.26248E+02
     0.97330E+01
     0.18176E+02
     0.17394E+02
     0.57066E+02
     0.52294E+02
     0.75349E+02
     0.76917E+02
     0.77702E+02
     0.96628E+02
     0.82300E+02
     0.88348E+02
     0.10474E+03
     0.91943E+02
     0.11320E+03
     0.11736E+03
     0.90094E+02
     0.11579E+03
     0.12621E+03
     0.10016E+03
     0.11085E+03
     0.11086E+03
     0.16260E+03
     0.15789E+03
     0.16943E+03
     0.16840E+03
     0.16979E+03
     0.18229E+03
     0.17379E+03
     0.19456E+03
     0.21616E+03
     0.20431E+03
     0.21941E+03
     0.23100E+03
     0.21963E+03
     0.24382E+03
     0.25556E+03
     0.23585E+03
     0.24750E+03
     0.25365E+03
     0.27503E+03
     0.27074E+03
     0.27603E+03
     0.27550E+03
     0.26898E+03
     0.27617E+03
     0.28578E+03
     0.30007E+03
     0.31803E+03
     0.32159E+03
     0.32267E+03
     0.32556E+03
     0.33746E+03
     0.35043E+03
     0.34318E+03
     0.35405E+03
     0.36553E+03
     0.36067E+03
     0.39121E+03
     0.39570E+03
     0.38884E+03
     0.38534E+03
     0.39217E+03
     0.38234E+03
     0.38759E+03
     0.41777E+03
     0.41805E+03
     0.40702E+03
     0.42310E+03
     0.42884E+03
     0.43442E+03
     0.44618E+03
     0.43736E+03
     0.45718E+03
     0.45939E+03
     0.44612E+03
     0.50847E+03
     0.52136E+03
     0.53588E+03
     0.51609E+03
     0.50466E+03
     0.51723E+03
     0.52076E+03
     0.52271E+03
     0.51736E+03
     0.52642E+03
     0.55199E+03
     0.53256E+03
     0.54048E+03
     0.58987E+03
     0.56384E+03
     0.54007E+03
     0.60436E+03
     0.63146E+03
     0.66807E+03
     0.65046E+03
     0.65798E+03
     0.66980E+03
     0.66225E+03
     0.65987E+03
     0.64860E+03
     0.65878E+03
     0.68536E+03
     0.69538E+03
     0.67332E+03
     0.68912E+03
     0.74550E+03
     0.73337E+03
     0.69975E+03
     0.73323E+03
     0.76957E+03
     0.77992E+03
     0.80921E+03
     0.80906E+03
     0.81441E+03
     0.81313E+03
     0.81274E+03
     0.81381E+03
     0.81927E+03
     0.84789E+03
     0.83834E+03
     0.82775E+03
     0.84480E+03
     0.89524E+03
     0.91341E+03
     0.90177E+03
     0.89065E+03
     0.92121E+03
     0.92691E+03
     0.92169E+03
     0.95255E+03
     0.97008E+03
     0.97493E+03
     0.95508E+03
     0.97183E+03
     0.99758E+03
     0.98879E+03
     0.97544E+03
     0.96659E+03
     0.10102E+04
     0.10512E+04
     0.10674E+04
     0.10803E+04
     0.10891E+04
     0.10734E+04
     0.10826E+04
     0.10797E+04
     0.10731E+04
     0.11020E+04
     0.11241E+04
     0.11364E+04
     0.11262E+04
     0.11420E+04
     0.11302E+04
     0.11101E+04
     0.11473E+04
     0.11866E+04
     0.12030E+04
     0.12153E+04
     0.12228E+04
     0.12410E+04
     0.12573E+04
     0.12407E+04
     0.12394E+04
     0.12396E+04
     0.12320E+04
     0.12755E+04
     0.12819E+04
     0.12612E+04
     0.12479E+04
     0.12875E+04
     0.13098E+04
     0.13059E+04
     0.13326E+04
     0.13513E+04
     0.13582E+04
     0.13656E+04
     0.13734E+04
     0.13839E+04
     0.13987E+04
     0.13972E+04
     0.13961E+04
     0.14000E+04
     0.13955E+04
     0.14352E+04
     0.14369E+04
     0.14367E+04
     0.14409E+04
     0.14556E+04
     0.14657E+04
     0.14732E+04
     0.14906E+04
     0.15004E+04
     0.15064E+04
     0.15136E+04
     0.15147E+04
     0.15107E+04
     0.15287E+04
     0.15664E+04
     0.15634E+04
     0.15635E+04
     0.15586E+04
     0.15974E+04
     0.16048E+04
     0.16122E+04
     0.16158E+04
     0.16114E+04
     0.16069E+04
     0.16115E+04
     0.16207E+04
     0.16277E+04
     0.16383E+04
     0.16620E+04
     0.16868E+04
     0.17032E+04
     0.17248E+04
     0.17600E+04
     0.17432E+04
     0.17307E+04
     0.17216E+04
     0.17681E+04
     0.17797E+04
     0.17884E+04
     0.17927E+04
     0.17907E+04
     0.17882E+04
     0.17928E+04
     0.17997E+04
     0.18068E+04
     0.18186E+04
     0.18417E+04
     0.18690E+04
     0.18913E+04
     0.19051E+04
     0.19155E+04
     0.18984E+04
     0.18832E+04
     0.18727E+04
     0.19355E+04
     0.19459E+04
     0.19542E+04
     0.19598E+04
     0.19635E+04
     0.19671E+04
     0.19730E+04
     0.19796E+04
     0.19860E+04
     0.19934E+04
     0.20068E+04
     0.20230E+04
     0.20342E+04
     0.20316E+04
     0.20185E+04
     0.20089E+04
     0.19948E+04
     0.19909E+04
     0.21055E+04
     0.21174E+04
     0.21278E+04
     0.21365E+04
     0.21436E+04
     0.21506E+04
     0.21600E+04
     0.21711E+04
     0.21788E+04
     0.21859E+04
     0.21984E+04
     0.22129E+04
     0.22252E+04
     0.22303E+04
     0.22287E+04
     0.22313E+04
     0.22234E+04
     0.22194E+04
     0.22700E+04
     0.22835E+04
     0.22951E+04
     0.23063E+04
     0.23174E+04
     0.23312E+04
     0.23520E+04
     0.23747E+04
     0.23850E+04
     0.23894E+04
     0.23921E+04
     0.23957E+04
     0.24064E+04
     0.24252E+04
     0.24538E+04
     0.24785E+04
     0.25080E+04
     0.25528E+04
    -0.24676E+02
    -0.10897E+02
    -0.29621E+02
    -0.49564E+02
    -0.28909E+02
    -0.50832E+02
    -0.65334E+02
    -0.53684E+02
    -0.58230E+02
    -0.57526E+02
    -0.50946E+02
    -0.63638E+02
    -0.62474E+02
    -0.68173E+02
    -0.49950E+02
    -0.39132E+02
    -0.39605E+02
    -0.34049E+02
    -0.22107E+02
    -0.32189E+02
    -0.30504E+02
    -0.39082E+02
    -0.51060E+02
    -0.50692E+02
    -0.25379E+02
    -0.19776E+02
    -0.43275E+02
    -0.51383E+02
    -0.50430E+02
    -0.49823E+02
    -0.37758E+01
    -0.28769E+02
    -0.33465E+02
    -0.50978E+02
    -0.38714E+02
    -0.52725E+02
    -0.37535E+02
    -0.47624E+02
    -0.35357E+02
    -0.42525E+02
    -0.35356E+02
    -0.43419E+02
    -0.37836E+02
    -0.51292E+02
    -0.40380E+02
    -0.54339E+02
    -0.32067E+02
    -0.37773E+02
    -0.17438E+02
    -0.23379E+02
    -0.18053E+02
    -0.39250E+02
    -0.18318E+02
    -0.32692E+02
    -0.18613E+02
    -0.33845E+02
    -0.17280E+02
    -0.26432E+02
    -0.95840E+01
    -0.14682E+02
    -0.38286E+01
    -0.32011E+01
    -0.14684E+02
    -0.36416E+02
    -0.36112E+02
    -0.46087E+02
    -0.29632E+02
    -0.30678E+02
    -0.19450E+02
    -0.28897E+02
    -0.45737E+02
    -0.41252E+02
    -0.35316E+02
    -0.33769E+02
    -0.30965E+02
    -0.29448E+02
    -0.27542E+02
    -0.26806E+02
    -0.25110E+02
    -0.23811E+02
    -0.22012E+02
    -0.21426E+02
    -0.20488E+02
    -0.20652E+02
    -0.19000E+02
    -0.19510E+02
    -0.18435E+02
    -0.19567E+02
    -0.19216E+02
    -0.20674E+02
    -0.20042E+02
    -0.21189E+02
    -0.21420E+02
    -0.23310E+02
    -0.23646E+02
    -0.24464E+02
    -0.25634E+02
    -0.27622E+02
    -0.28041E+02
    -0.33426E+02
    -0.33788E+02
    -0.39888E+02
    -0.34366E+02
    -0.42191E+02
    -0.45280E+02
    -0.45374E+02
    -0.41424E+02
    -0.44895E+02
    -0.41102E+02
    -0.41285E+02
    -0.39382E+02
    -0.37721E+02
    -0.35615E+02
    -0.40291E+02
    -0.36307E+02
    -0.32886E+02
    -0.31412E+02
    -0.27288E+02
    -0.29759E+02
    -0.25552E+02
    -0.25692E+02
    -0.20852E+02
    -0.23994E+02
    -0.77153E+01
    -0.15239E+02
    -0.16051E+02
    -0.11559E+02
    -0.57998E+01
    -0.59634E+01
    -0.78540E+01
    -0.56306E+01
    -0.10095E+02
    -0.90170E+01
    -0.11466E+02
    -0.11710E+02
    -0.12982E+02
    -0.14801E+02
    -0.17586E+02
    -0.15471E+02
    -0.23352E+02
    -0.20561E+02
    -0.22539E+02
    -0.22920E+02
    -0.22036E+02
    -0.22350E+02
    -0.17257E+02
    -0.21406E+02
    -0.21703E+02
    -0.16732E+02
    -0.19880E+02
    -0.15797E+02
    -0.18626E+02
    -0.14790E+02
    -0.17507E+02
    -0.13193E+02
    -0.17624E+02
    -0.13250E+02
    -0.13701E+02
    -0.12435E+02
    -0.86794E+01
    -0.87073E+01
    -0.95740E+01
    -0.53869E+01
    -0.26598E+02
    -0.27777E+02
    -0.23904E+02
    -0.24178E+02
    -0.22209E+02
    -0.22333E+02
    -0.20670E+02
    -0.20798E+02
    -0.18732E+02
    -0.19055E+02
    -0.18584E+02
    -0.18718E+02
    -0.17960E+02
    -0.18113E+02
    -0.18345E+02
    -0.18152E+02
    -0.19469E+02
    -0.18226E+02
    -0.21331E+02
    -0.20172E+02
    -0.24050E+02
    -0.22113E+02
    -0.26296E+02
    -0.24943E+02
    -0.29182E+02
    -0.26378E+02
    -0.33196E+02
    -0.30229E+02
    -0.35612E+02
    -0.21136E+02
    -0.10942E+02
    -0.33328E+02
    -0.29127E+02
    -0.11859E+02
    -0.10760E+02
    -0.30996E+01
    -0.29195E+01
    -0.35304E+02
    -0.33037E+02
    -0.40653E+01
    -0.19767E+01
    -0.57668E+01
    -0.11599E+02
    -0.96865E+01
    -0.11329E+02
    -0.33440E+02
    -0.32101E+02
    -0.31769E+02
    -0.30008E+02
    -0.30523E+02
    -0.28886E+02
    -0.30636E+02
    -0.27740E+02
    -0.25234E+02
    -0.25002E+02
    -0.22859E+02
    -0.22085E+02
    -0.19078E+02
    -0.19155E+02
    -0.15402E+02
    -0.15365E+02
    -0.10873E+02
    -0.11585E+02
    -0.10334E+02
    -0.95809E+01
    -0.89465E+01
    -0.83544E+01
    -0.76925E+01
    -0.70307E+01
    -0.73654E+01
    -0.10237E+02
    -0.65729E+01