# vtk DataFile Version 3.14.1
BMesh by KP LIAO
ASCII
DATASET UNSTRUCTURED_GRID
POINTS 	      8150 	FLOAT
    5.19242 	   2.72229 	   4.13127
    5.19540 	   2.59598 	   4.02024
    5.19820 	   2.52859 	   3.91582
    5.20307 	   2.50125 	   3.73443
    5.55405 	   2.50127 	   3.73974
    5.54328 	   2.81679 	   4.14115
    5.19821 	   2.47213 	   3.91554
    5.19542 	   2.40372 	   4.01930
    5.19248 	   2.27633 	   4.12909
    5.54336 	   2.18183 	   4.13804
    6.24502 	   2.82597 	   4.16003
    6.25580 	   2.50127 	   3.75858
    6.24511 	   2.17265 	   4.15683
    7.89321 	   2.50127 	   3.80253
    7.88252 	   2.17265 	   4.20078
    7.88243 	   2.82597 	   4.20398
    9.28593 	   2.82597 	   4.24165
    9.29670 	   2.50127 	   3.84020
    9.28602 	   2.17265 	   4.23845
    9.65715 	   2.50089 	   3.92790
    9.65722 	   2.49423 	   3.92525
    9.58651 	   2.49413 	   3.94443
    9.60296 	   2.50055 	   3.99514
    9.58516 	   2.48882 	   3.99460
    9.55901 	   2.48415 	   3.98718
    9.58854 	   2.50117 	   3.86884
    9.56220 	   2.50120 	   3.86066
    9.52702 	   2.47824 	   3.98069
    9.53043 	   2.50123 	   3.85363
    9.58650 	   2.50746 	   3.94449
    9.65722 	   2.50757 	   3.92532
    9.58516 	   2.51228 	   3.99471
    9.55901 	   2.51701 	   3.98734
    9.52701 	   2.52298 	   3.98091
    9.82840 	   2.82597 	   4.25621
    9.63680 	   2.82597 	   4.25106
    9.83374 	   2.50028 	   4.05735
    9.64311 	   2.50045 	   4.01597
    9.51985 	   2.82597 	   4.24792
    9.63689 	   2.17265 	   4.24787
    9.82849 	   2.17265 	   4.25301
    9.51993 	   2.17265 	   4.24473
    9.42403 	   2.17265 	   4.24216
    9.42395 	   2.82597 	   4.24535
    9.82844 	   2.49931 	   4.25461
    9.65779 	   2.50100 	   3.90391
    9.43472 	   2.50127 	   3.84390
    5.13968 	   2.51730 	   3.91544
    5.14129 	   2.52726 	   3.85577
    5.14438 	   2.50121 	   3.74052
    5.14130 	   2.47403 	   3.85551
    5.13969 	   2.48341 	   3.91527
    5.08265 	   2.47786 	   3.86036
    5.08157 	   2.49125 	   3.90041
    5.08121 	   2.50035 	   3.91378
    5.08157 	   2.50959 	   3.90050
    5.08264 	   2.52337 	   3.86058
    5.07115 	   2.50042 	   3.90018
    5.02416 	   2.52121 	   3.85900
    5.02309 	   2.50042 	   3.89889
    5.02417 	   2.48002 	   3.85880
    5.08550 	   2.50114 	   3.75391
    5.02633 	   2.50101 	   3.77816
    4.94679 	   2.50061 	   3.85682
    5.13394 	   2.69168 	   4.12955
    5.13399 	   2.30694 	   4.12767
    4.93495 	   2.49931 	   4.12327
    5.13681 	   2.57067 	   4.02233
    5.02482 	   2.49983 	   4.01897
    5.13683 	   2.42899 	   4.02163
    5.21086 	   2.73073 	   4.13131
    5.22948 	   2.73876 	   4.13160
    5.24827 	   2.74638 	   4.13211
    5.26721 	   2.75359 	   4.13281
    5.28630 	   2.76039 	   4.13363
    5.30554 	   2.76676 	   4.13447
    5.32491 	   2.77272 	   4.13525
    5.34440 	   2.77829 	   4.13593
    5.36400 	   2.78348 	   4.13651
    5.38368 	   2.78833 	   4.13699
    5.40345 	   2.79287 	   4.13743
    5.42327 	   2.79712 	   4.13785
    5.44316 	   2.80110 	   4.13829
    5.46309 	   2.80481 	   4.13878
    5.48307 	   2.80826 	   4.13931
    5.50309 	   2.81141 	   4.13990
    5.52317 	   2.81426 	   4.14051
    5.19272 	   2.70740 	   4.11996
    5.19303 	   2.69274 	   4.10835
    5.19335 	   2.67835 	   4.09640
    5.19368 	   2.66418 	   4.08419
    5.19401 	   2.65019 	   4.07178
    5.19435 	   2.63633 	   4.05922
    5.19469 	   2.62267 	   4.04644
    5.19504 	   2.60924 	   4.03343
    5.19574 	   2.58327 	   4.00729
    5.19610 	   2.57070 	   3.99420
    5.19646 	   2.55865 	   3.98065
    5.19685 	   2.54779 	   3.96612
    5.19727 	   2.53864 	   3.95047
    5.19772 	   2.53201 	   3.93361
    5.19873 	   2.52799 	   3.89618
    5.19925 	   2.52952 	   3.87659
    5.19977 	   2.53245 	   3.85715
    5.20030 	   2.53543 	   3.83772
    5.20082 	   2.53723 	   3.81816
    5.20135 	   2.53656 	   3.79852
    5.20187 	   2.53364 	   3.77910
    5.20237 	   2.52778 	   3.76036
    5.20283 	   2.51803 	   3.74335
    5.53455 	   2.50127 	   3.73911
    5.51505 	   2.50127 	   3.73851
    5.49555 	   2.50127 	   3.73794
    5.47605 	   2.50127 	   3.73744
    5.45654 	   2.50127 	   3.73699
    5.43704 	   2.50127 	   3.73660
    5.41753 	   2.50127 	   3.73624
    5.39803 	   2.50127 	   3.73587
    5.37852 	   2.50127 	   3.73543
    5.35902 	   2.50127 	   3.73488
    5.33952 	   2.50127 	   3.73421
    5.32003 	   2.50127 	   3.73346
    5.30053 	   2.50127 	   3.73272
    5.28103 	   2.50127 	   3.73213
    5.26152 	   2.50127 	   3.73190
    5.24201 	   2.50126 	   3.73215
    5.22252 	   2.50126 	   3.73298
    5.54377 	   2.80878 	   4.12290
    5.54424 	   2.79909 	   4.10549
    5.54468 	   2.78781 	   4.08906
    5.54510 	   2.77555 	   4.07335
    5.54550 	   2.76258 	   4.05821
    5.54590 	   2.74912 	   4.04350
    5.54629 	   2.73531 	   4.02912
    5.54666 	   2.72124 	   4.01500
    5.54704 	   2.70691 	   4.00115
    5.54741 	   2.69267 	   3.98719
    5.54780 	   2.67890 	   3.97279
    5.54820 	   2.66560 	   3.95793
    5.54860 	   2.65272 	   3.94272
    5.54902 	   2.64031 	   3.92712
    5.54945 	   2.62833 	   3.91119
    5.54988 	   2.61649 	   3.89516
    5.55031 	   2.60465 	   3.87912
    5.55074 	   2.59283 	   3.86306
    5.55117 	   2.58102 	   3.84701
    5.55161 	   2.56949 	   3.83075
    5.55206 	   2.55879 	   3.81393
    5.55254 	   2.54972 	   3.79619
    5.55304 	   2.54263 	   3.77757
    5.55351 	   2.53372 	   3.75981
    5.55389 	   2.51987 	   3.74563
    5.19873 	   2.47292 	   3.89591
    5.19926 	   2.47158 	   3.87631
    5.19978 	   2.46884 	   3.85684
    5.20031 	   2.46605 	   3.83738
    5.20083 	   2.46444 	   3.81781
    5.20136 	   2.46531 	   3.79817
    5.20188 	   2.46842 	   3.77878
    5.20238 	   2.47446 	   3.76010
    5.20283 	   2.48438 	   3.74319
    5.19577 	   2.41656 	   4.00648
    5.19611 	   2.42925 	   3.99351
    5.19648 	   2.44144 	   3.98008
    5.19686 	   2.45244 	   3.96565
    5.19728 	   2.46174 	   3.95009
    5.19773 	   2.46854 	   3.93330
    5.19278 	   2.29133 	   4.11793
    5.19308 	   2.30611 	   4.10645
    5.19340 	   2.32061 	   4.09465
    5.19372 	   2.33490 	   4.08258
    5.19405 	   2.34901 	   4.07031
    5.19439 	   2.36300 	   4.05789
    5.19473 	   2.37678 	   4.04524
    5.19507 	   2.39033 	   4.03236
    5.21092 	   2.26790 	   4.12904
    5.22955 	   2.25987 	   4.12925
    5.24833 	   2.25225 	   4.12969
    5.26728 	   2.24503 	   4.13033
    5.28637 	   2.23824 	   4.13108
    5.30561 	   2.23186 	   4.13185
    5.32498 	   2.22590 	   4.13258
    5.34447 	   2.22033 	   4.13320
    5.36407 	   2.21514 	   4.13373
    5.38376 	   2.21029 	   4.13417
    5.40352 	   2.20575 	   4.13456
    5.42335 	   2.20150 	   4.13494
    5.44324 	   2.19752 	   4.13534
    5.46317 	   2.19381 	   4.13579
    5.48315 	   2.19037 	   4.13629
    5.50318 	   2.18721 	   4.13684
    5.52325 	   2.18436 	   4.13743
    5.54385 	   2.19002 	   4.11987
    5.54431 	   2.19988 	   4.10256
    5.54475 	   2.21132 	   4.08624
    5.54517 	   2.22373 	   4.07065
    5.54557 	   2.23685 	   4.05564
    5.54596 	   2.25045 	   4.04106
    5.54635 	   2.26440 	   4.02682
    5.54672 	   2.27861 	   4.01284
    5.54709 	   2.29308 	   3.99913
    5.54746 	   2.30745 	   3.98531
    5.54784 	   2.32137 	   3.97104
    5.54824 	   2.33480 	   3.95632
    5.54864 	   2.34783 	   3.94123
    5.54906 	   2.36040 	   3.92575
    5.54948 	   2.37254 	   3.90994
    5.54991 	   2.38453 	   3.89402
    5.55034 	   2.39653 	   3.87810
    5.55077 	   2.40850 	   3.86216
    5.55119 	   2.42047 	   3.84622
    5.55163 	   2.43216 	   3.83008
    5.55208 	   2.44302 	   3.81337
    5.55255 	   2.45226 	   3.79572
    5.55305 	   2.45954 	   3.77717
    5.55352 	   2.46862 	   3.75949
    5.55390 	   2.48261 	   3.74545
    5.19247 	   2.30256 	   4.12921
    5.19247 	   2.32879 	   4.12934
    5.19247 	   2.35503 	   4.12947
    5.19246 	   2.38126 	   4.12960
    5.19246 	   2.40749 	   4.12973
    5.19246 	   2.43373 	   4.12986
    5.19245 	   2.45996 	   4.12998
    5.19245 	   2.48619 	   4.13011
    5.19244 	   2.51243 	   4.13024
    5.19244 	   2.53866 	   4.13037
    5.19244 	   2.56489 	   4.13050
    5.19243 	   2.59113 	   4.13063
    5.19243 	   2.61736 	   4.13075
    5.19243 	   2.64359 	   4.13088
    5.19242 	   2.66983 	   4.13101
    5.19242 	   2.69606 	   4.13114
    5.54335 	   2.24533 	   4.13835
    5.54335 	   2.30882 	   4.13866
    5.54334 	   2.37232 	   4.13897
    5.54333 	   2.43581 	   4.13928
    5.54332 	   2.49931 	   4.13959
    5.54331 	   2.56281 	   4.13990
    5.54330 	   2.62630 	   4.14022
    5.54330 	   2.68980 	   4.14053
    5.54329 	   2.75329 	   4.14084
    6.24565 	   2.82609 	   4.13669
    6.24628 	   2.82620 	   4.11335
    6.24690 	   2.82632 	   4.09002
    6.24753 	   2.82643 	   4.06668
    6.24816 	   2.82654 	   4.04334
    6.24878 	   2.82637 	   4.02001
    6.24941 	   2.82476 	   3.99674
    6.25002 	   2.82087 	   3.97374
    6.25062 	   2.81404 	   3.95144
    6.25119 	   2.80385 	   3.93047
    6.25171 	   2.79120 	   3.91087
    6.25221 	   2.77702 	   3.89234
    6.25268 	   2.76179 	   3.87465
    6.25315 	   2.74599 	   3.85747
    6.25360 	   2.72994 	   3.84053
    6.25405 	   2.71366 	   3.82380
    6.25449 	   2.69712 	   3.80733
    6.25492 	   2.67995 	   3.79152
    6.25529 	   2.66129 	   3.77753
    6.25557 	   2.64044 	   3.76712
    6.25573 	   2.61788 	   3.76127
    6.25578 	   2.59465 	   3.75918
    6.25579 	   2.57130 	   3.75892
    6.25579 	   2.54796 	   3.75881
    6.25580 	   2.52461 	   3.75869
    5.58208 	   2.82072 	   4.14237
    5.62098 	   2.82345 	   4.14354
    5.65995 	   2.82512 	   4.14462
    5.69895 	   2.82594 	   4.14562
    5.73796 	   2.82614 	   4.14656
    5.77697 	   2.82597 	   4.14747
    5.81597 	   2.82566 	   4.14838
[...]
CELL_DATA 	      9403
SCALARS 	cell_scalars 	FLOAT 	         1
LOOKUP_TABLE 	DEFAULT
    -0.50374E+02
    -0.58600E+02
    -0.51038E+02
    -0.56062E+02
    -0.63512E+02
    -0.57095E+02
    -0.60657E+02
    -0.67286E+02
    -0.62637E+02
    -0.58189E+02
    -0.65481E+02
    -0.67629E+02
    -0.66291E+02
    -0.61540E+02
    -0.61585E+02
    -0.68329E+02
    -0.64375E+02
    -0.62834E+02
    -0.55556E+02
    -0.60036E+02
    -0.59221E+02
    -0.59763E+02
    -0.65356E+02
    -0.63391E+02
    -0.65234E+02
    -0.66292E+02
    -0.64794E+02
    -0.63871E+02
    -0.66825E+02
    -0.67119E+02
    -0.66853E+02
    -0.68045E+02
    -0.69077E+02
    -0.66551E+02
    -0.64693E+02
    -0.65606E+02
    -0.58095E+02
    -0.60086E+02
    -0.62303E+02
    -0.62572E+02
    -0.67033E+02
    -0.68005E+02
    -0.68572E+02
    -0.68976E+02
    -0.69565E+02
    -0.69123E+02
    -0.69610E+02
    -0.70148E+02
    -0.71104E+02
    -0.72270E+02
    -0.72007E+02
    -0.68376E+02
    -0.69691E+02
    -0.72775E+02
    -0.48003E+02
    -0.51185E+02
    -0.58192E+02
    -0.56826E+02
    -0.64049E+02
    -0.65655E+02
    -0.65961E+02
    -0.69710E+02
    -0.70154E+02
    -0.70025E+02
    -0.71990E+02
    -0.72514E+02
    -0.70292E+02
    -0.72780E+02
    -0.74838E+02
    -0.73153E+02
    -0.73315E+02
    -0.72057E+02
    -0.13505E+02
    -0.18006E+02
    -0.27619E+02
    -0.32449E+02
    -0.39201E+02
    -0.47043E+02
    -0.49577E+02
    -0.56372E+02
    -0.58569E+02
    -0.62999E+02
    -0.66009E+02
    -0.64084E+02
    -0.65630E+02
    -0.71155E+02
    -0.72961E+02
    -0.72159E+02
    -0.72844E+02
    -0.72491E+02
     0.45753E+02
     0.40210E+02
     0.30032E+02
     0.21912E+02
     0.10308E+02
    -0.40846E+01
    -0.52045E+01
    -0.18340E+02
    -0.29014E+02
    -0.36764E+02
    -0.43815E+02
    -0.45164E+02
    -0.50009E+02
    -0.57589E+02
    -0.60262E+02
    -0.62766E+02
    -0.66746E+02
    -0.67843E+02
     0.10619E+03
     0.10292E+03
     0.87983E+02
     0.80196E+02
     0.64403E+02
     0.41892E+02
     0.43779E+02
     0.29173E+02
     0.14747E+02
     0.11617E+02
    -0.19743E+01
    -0.91891E+01
    -0.12636E+02
    -0.20182E+02
    -0.28086E+02
    -0.34806E+02
    -0.42539E+02
    -0.44408E+02
     0.16900E+03
     0.16504E+03
     0.14845E+03
     0.14380E+03
     0.12640E+03
     0.10216E+03
     0.10061E+03
     0.83334E+02
     0.69125E+02
     0.73605E+02
     0.53466E+02
     0.40030E+02
     0.39514E+02
     0.27103E+02
     0.19120E+02
     0.18565E+02
     0.79226E+01
    -0.10015E+00
     0.23599E+03
     0.23625E+03
     0.21871E+03
     0.20716E+03
     0.19576E+03
     0.17486E+03
     0.17184E+03
     0.15574E+03
     0.13725E+03
     0.14542E+03
     0.13029E+03
     0.10881E+03
     0.11617E+03
     0.10134E+03
     0.84811E+02
     0.90634E+02
     0.76757E+02
     0.65084E+02
     0.32317E+03
     0.32011E+03
     0.29766E+03
     0.28421E+03
     0.27247E+03
     0.24938E+03
     0.24335E+03
     0.23137E+03
     0.21013E+03
     0.21380E+03
     0.20708E+03
     0.18678E+03
     0.19386E+03
     0.18830E+03
     0.17218E+03
     0.17574E+03
     0.16559E+03
     0.16069E+03
     0.42192E+03
     0.40714E+03
     0.38911E+03
     0.37727E+03
     0.36478E+03
     0.34239E+03
     0.33029E+03
     0.32241E+03
     0.30530E+03
     0.29801E+03
     0.29316E+03
     0.27857E+03
     0.27603E+03
     0.27721E+03
     0.26825E+03
     0.27094E+03
     0.27025E+03
     0.27076E+03
     0.51966E+03
     0.49998E+03
     0.48716E+03
     0.47329E+03
     0.45383E+03
     0.44072E+03
     0.42893E+03
     0.41489E+03
     0.40819E+03
     0.40400E+03
     0.39598E+03
     0.38834E+03
     0.38732E+03
     0.38305E+03
     0.38004E+03
     0.38396E+03
     0.38243E+03
     0.38476E+03
     0.63846E+03
     0.61183E+03
     0.60065E+03
     0.58668E+03
     0.56302E+03
     0.55272E+03
     0.54373E+03
     0.52905E+03
     0.52328E+03
     0.51873E+03
     0.51369E+03
     0.51269E+03
     0.50383E+03
     0.50292E+03
     0.51128E+03
     0.50435E+03
     0.50121E+03
     0.50887E+03
     0.75764E+03
     0.74730E+03
     0.74302E+03
     0.71812E+03
     0.70145E+03
     0.69609E+03
     0.68042E+03
     0.66417E+03
     0.65867E+03
     0.65516E+03
     0.64879E+03
     0.64381E+03
     0.63867E+03
     0.64149E+03
     0.63945E+03
     0.63616E+03
     0.64523E+03
     0.63781E+03
     0.92365E+03
     0.91226E+03
     0.87433E+03
     0.87222E+03
     0.87617E+03
     0.83535E+03
     0.82576E+03
     0.83633E+03
     0.81187E+03
     0.79958E+03
     0.80552E+03
     0.79925E+03
     0.79026E+03
     0.78446E+03
     0.78223E+03
     0.78577E+03
     0.78311E+03
     0.77489E+03
     0.10986E+04
     0.10914E+04
     0.10589E+04
     0.10321E+04
     0.10400E+04
     0.10286E+04
     0.99482E+03
     0.98352E+03
     0.98644E+03
     0.98228E+03
     0.95105E+03
     0.94083E+03
     0.95280E+03
     0.93965E+03
     0.93009E+03
     0.93083E+03
     0.92555E+03
     0.92568E+03
     0.12711E+04
     0.12732E+04
     0.12627E+04
     0.12180E+04
     0.12133E+04
     0.12134E+04
     0.11948E+04
     0.11580E+04
     0.11409E+04
     0.11425E+04
     0.11379E+04
     0.11172E+04
     0.10970E+04
     0.10945E+04
     0.10940E+04
     0.10805E+04
     0.10718E+04
     0.10728E+04
     0.14510E+04
     0.14510E+04
     0.14493E+04
     0.14159E+04
     0.13962E+04
     0.13934E+04
     0.13823E+04
     0.13558E+04
     0.13227E+04
     0.12947E+04
     0.12943E+04
     0.12910E+04
     0.12748E+04
     0.12584E+04
     0.12324E+04
     0.12266E+04
     0.12314E+04
     0.12218E+04
     0.16263E+04
     0.16287E+04
     0.16244E+04
     0.16025E+04
     0.15782E+04
     0.15659E+04
     0.15518E+04
     0.15357E+04
     0.15073E+04
     0.14780E+04
     0.14560E+04
     0.14396E+04
     0.14356E+04
     0.14243E+04
     0.14047E+04
     0.13947E+04
     0.13841E+04
     0.13634E+04
     0.17985E+04
     0.18003E+04
     0.17915E+04
     0.17688E+04
     0.17479E+04
     0.17340E+04
     0.17186E+04
     0.16986E+04
     0.16786E+04
     0.16558E+04
     0.16253E+04
     0.16040E+04
     0.15941E+04
     0.15757E+04
     0.15573E+04
     0.15482E+04
     0.15377E+04
     0.15213E+04
     0.19675E+04
     0.19693E+04
     0.19552E+04
     0.19195E+04
     0.19057E+04
     0.18960E+04
     0.18813E+04
     0.18629E+04
     0.18415E+04
     0.18197E+04
     0.17969E+04
     0.17753E+04
     0.17539E+04
     0.17315E+04
     0.17155E+04
     0.17059E+04
     0.16936E+04
     0.16771E+04
     0.21326E+04
     0.21347E+04
     0.21210E+04
     0.20811E+04
     0.20629E+04
     0.20497E+04
     0.20353E+04
     0.20203E+04
     0.20056E+04
     0.19895E+04
     0.19714E+04
     0.19508E+04
     0.19291E+04
     0.19064E+04
     0.18850E+04
     0.18689E+04
     0.18539E+04
     0.18380E+04
     0.22908E+04
     0.22910E+04
     0.22835E+04
     0.22594E+04
     0.22309E+04
     0.22065E+04
     0.21864E+04
     0.21707E+04
     0.21578E+04
     0.21450E+04
     0.21324E+04
     0.21183E+04
     0.21034E+04
     0.20862E+04
     0.20671E+04
     0.20481E+04
     0.20314E+04
     0.20141E+04
     0.24375E+04
     0.24351E+04
     0.24302E+04
     0.24182E+04
     0.24008E+04
     0.23813E+04
     0.23575E+04
     0.23363E+04
     0.23183E+04
     0.23015E+04
     0.22854E+04
     0.22704E+04
     0.22554E+04
     0.22394E+04
     0.22233E+04
     0.22057E+04
     0.21898E+04
     0.21751E+04
     0.25731E+04
     0.25756E+04
     0.25778E+04
     0.25726E+04
     0.25584E+04
     0.25389E+04
     0.25159E+04
     0.24962E+04
     0.24779E+04
     0.24598E+04
     0.24425E+04
     0.24261E+04
     0.24103E+04
     0.23944E+04
     0.23783E+04
     0.23612E+04
     0.23442E+04
     0.23287E+04
     0.27105E+04
     0.27207E+04
     0.27142E+04
     0.26971E+04
     0.26765E+04
     0.26548E+04
     0.26347E+04
     0.26124E+04
     0.25907E+04
     0.25699E+04
     0.25509E+04
     0.25329E+04
     0.25151E+04
     0.24973E+04
     0.24777E+04
     0.24567E+04
     0.24361E+04
     0.24172E+04
    -0.61447E+02
    -0.61470E+02
    -0.63156E+02
    -0.61264E+02
    -0.57207E+02
    -0.58104E+02
    -0.61286E+02
    -0.66928E+02
    -0.58010E+02
    -0.56249E+02
    -0.60143E+02
    -0.60143E+02
    -0.46489E+02
    -0.47055E+02
    -0.49989E+02
    -0.18474E+02
    -0.20858E+02
    -0.35086E+02
    -0.67048E+02
    -0.65415E+02
    -0.65533E+02
    -0.66116E+02
    -0.70203E+02
    -0.66203E+02
    -0.66117E+02
    -0.67958E+02
    -0.66636E+02
    -0.64007E+02
    -0.65997E+02
    -0.65645E+02
    -0.60143E+02
    -0.62756E+02
    -0.61012E+02
    -0.52872E+02
    -0.58126E+02
    -0.53881E+02
    -0.70756E+02
    -0.73675E+02
    -0.69494E+02
    -0.68799E+02
    -0.70318E+02
    -0.72437E+02
    -0.70251E+02
    -0.68837E+02
    -0.69896E+02
    -0.68223E+02
    -0.68338E+02
    -0.67472E+02
    -0.64807E+02
    -0.65156E+02
    -0.60634E+02
    -0.57921E+02
    -0.57649E+02
    -0.54862E+02
    -0.70883E+02
    -0.73842E+02
    -0.73867E+02
    -0.72075E+02
    -0.70269E+02
    -0.72297E+02
    -0.70980E+02
    -0.70630E+02
    -0.69377E+02
    -0.67811E+02
    -0.69492E+02
    -0.65048E+02
    -0.61240E+02
    -0.62537E+02
    -0.53322E+02
    -0.51615E+02
    -0.45928E+02
    -0.41677E+02
    -0.73106E+02
    -0.71864E+02
    -0.71188E+02
    -0.71186E+02
    -0.70785E+02
    -0.67390E+02
    -0.63406E+02
    -0.65012E+02
    -0.59958E+02
    -0.53985E+02
    -0.55124E+02
    -0.46202E+02
    -0.38562E+02
    -0.34870E+02
    -0.24473E+02
    -0.18906E+02
    -0.88825E+01
    -0.36809E+01
    -0.67800E+02
    -0.65081E+02
    -0.59887E+02
    -0.56414E+02
    -0.57834E+02
    -0.50980E+02
    -0.42510E+02
    -0.42022E+02
    -0.33108E+02
    -0.21236E+02
    -0.16870E+02
     0.77555E+01
     0.14782E+02
     0.17739E+02
     0.32581E+02
     0.43383E+02
     0.53082E+02
     0.57628E+02
    -0.42067E+02
    -0.40866E+02
    -0.31337E+02
    -0.21408E+02
    -0.19435E+02
    -0.92950E+01
    -0.18785E+01
    -0.13760E+01
     0.15738E+02
     0.24014E+02
     0.30871E+02
     0.56589E+02
     0.56069E+02
     0.68204E+02
     0.89084E+02
     0.97295E+02
     0.11208E+03
     0.11641E+03
     0.78554E+01
     0.12339E+02
     0.27954E+02
     0.32904E+02
     0.29670E+02
     0.46241E+02
     0.51815E+02
     0.49918E+02
     0.72410E+02
     0.76651E+02
     0.84976E+02
     0.10598E+03
     0.10606E+03
     0.12972E+03
     0.15331E+03
     0.15278E+03
     0.16657E+03
     0.17585E+03
     0.77275E+02
     0.78826E+02
     0.98984E+02
     0.98521E+02
     0.10047E+03
     0.12182E+03
     0.12039E+03
     0.12687E+03
     0.14518E+03
     0.14321E+03
     0.15803E+03
     0.17698E+03
     0.17763E+03
     0.19957E+03
     0.21781E+03
     0.22494E+03
     0.24111E+03
     0.24394E+03
     0.17262E+03
     0.17090E+03
     0.18377E+03
     0.18177E+03
     0.19420E+03
     0.20602E+03
     0.19578E+03
     0.20828E+03
     0.22081E+03
     0.21562E+03
     0.23292E+03
     0.24847E+03
     0.25168E+03
     0.27390E+03
     0.29011E+03
     0.30276E+03
     0.32482E+03
     0.32623E+03
     0.28146E+03
     0.27881E+03
     0.28086E+03
     0.27528E+03
     0.28411E+03
     0.28556E+03
     0.28072E+03
     0.29495E+03
     0.30602E+03
     0.30963E+03
     0.32367E+03
     0.33396E+03
     0.34583E+03
     0.36741E+03
     0.38035E+03
     0.39234E+03
     0.40987E+03
     0.42428E+03
     0.39334E+03
     0.39016E+03
     0.39208E+03
     0.38749E+03
     0.38871E+03
     0.39288E+03
     0.39269E+03
     0.40011E+03
     0.40903E+03
     0.41521E+03
     0.42212E+03
     0.43461E+03
     0.44659E+03
     0.46058E+03
     0.47754E+03
     0.49052E+03
     0.50276E+03
     0.52363E+03
     0.51816E+03
     0.51302E+03
     0.51376E+03
     0.51709E+03
     0.50930E+03
     0.51065E+03
     0.52005E+03
     0.51817E+03
     0.52140E+03
     0.53211E+03
     0.53882E+03
     0.54879E+03
     0.55975E+03
     0.57163E+03
     0.58960E+03
     0.60283E+03
     0.61336E+03
     0.63887E+03
     0.64909E+03
     0.65356E+03
     0.64063E+03
     0.64345E+03
     0.65017E+03
     0.64758E+03
     0.65301E+03
     0.65502E+03
     0.65750E+03
     0.66505E+03
     0.67332E+03
     0.68435E+03
     0.69843E+03
     0.70524E+03
     0.71942E+03
     0.74190E+03
     0.74625E+03
     0.75560E+03
     0.78330E+03
     0.79092E+03
     0.79278E+03
     0.78777E+03
     0.79244E+03
     0.80066E+03
     0.80784E+03
     0.81035E+03
     0.80484E+03
     0.81635E+03
     0.83926E+03
     0.82879E+03
     0.83981E+03
     0.87661E+03
     0.87018E+03
     0.87349E+03
     0.91416E+03
     0.92351E+03
     0.93425E+03
     0.93559E+03
     0.94249E+03
     0.94128E+03
     0.94871E+03
     0.95963E+03
     0.95017E+03
     0.95913E+03
     0.98835E+03
     0.98790E+03
     0.98751E+03
     0.10034E+04
     0.10314E+04
     0.10362E+04
     0.10297E+04
     0.10631E+04
     0.10934E+04
     0.10978E+04
     0.10804E+04
     0.10858E+04
     0.10951E+04
     0.11028E+04
     0.11017E+04
     0.11067E+04
     0.11305E+04
     0.11433E+04
     0.11425E+04
     0.11442E+04
     0.11703E+04
     0.11979E+04
     0.12146E+04
     0.12081E+04
     0.12243E+04
     0.12653E+04
     0.12739E+04
     0.12707E+04
     0.12279E+04
     0.12391E+04
     0.12355E+04
     0.12450E+04
     0.12707E+04
     0.12833E+04
     0.12965E+04
     0.12979E+04
     0.12976E+04
     0.13342E+04
     0.13629E+04
     0.13824E+04
     0.13900E+04
     0.13958E+04
     0.14273E+04
     0.14494E+04
     0.14516E+04
     0.14538E+04
     0.13685E+04
     0.13901E+04
     0.13999E+04
     0.14109E+04
     0.14306E+04
     0.14381E+04
     0.14436E+04
     0.14627E+04
     0.14846E+04
     0.15147E+04
     0.15376E+04
     0.15527E+04
     0.15617E+04
     0.15699E+04
     0.16102E+04
     0.16260E+04
     0.16295E+04
     0.16281E+04
     0.15276E+04
     0.15408E+04
     0.15474E+04
     0.15604E+04
     0.15826E+04
     0.15980E+04
     0.16078E+04
     0.16334E+04
     0.16599E+04
     0.16813E+04
     0.17026E+04
     0.17204E+04
     0.17291E+04
     0.17382E+04
     0.17789E+04
     0.17975E+04
     0.18023E+04
     0.18008E+04
     0.16820E+04
     0.16949E+04
     0.17047E+04
     0.17186E+04
     0.17389E+04
     0.17602E+04
     0.17790E+04
     0.18000E+04
     0.18226E+04
     0.18450E+04
     0.18656E+04
     0.18801E+04
     0.18869E+04
     0.19007E+04
     0.19428E+04
     0.19653E+04
     0.19699E+04
     0.19692E+04
     0.18408E+04
     0.18551E+04
     0.18710E+04
     0.18892E+04
     0.19090E+04
     0.19291E+04
     0.19484E+04
     0.19675E+04
     0.19853E+04
     0.20018E+04
     0.20187E+04
     0.20334E+04
     0.20462E+04
     0.20696E+04
     0.21099E+04
     0.21290E+04
     0.21339E+04
     0.21342E+04
     0.20200E+04
     0.20360E+04
     0.20499E+04
     0.20635E+04
     0.20767E+04
     0.20898E+04
     0.21043E+04
     0.21202E+04
     0.21354E+04
     0.21507E+04
     0.21693E+04
     0.21935E+04
     0.22194E+04
     0.22460E+04
     0.22712E+04
     0.22868E+04
     0.22946E+04
     0.22971E+04
     0.21774E+04
     0.21912E+04
     0.22028E+04
     0.22174E+04
     0.22334E+04
     0.22504E+04
     0.22673E+04
     0.22847E+04
     0.23015E+04
     0.23184E+04
     0.23374E+04
     0.23586E+04
     0.23795E+04
     0.24008E+04
     0.24200E+04
     0.24362E+04
     0.24487E+04
     0.24545E+04
     0.23301E+04
     0.23426E+04
     0.23528E+04
     0.23699E+04
     0.23877E+04
     0.24056E+04
     0.24233E+04
     0.24406E+04
     0.24579E+04
     0.24756E+04
     0.24942E+04
     0.25137E+04
     0.25334E+04
     0.25510E+04
     0.25667E+04
     0.25797E+04
     0.25870E+04
     0.25885E+04
     0.24178E+04
     0.24359E+04
     0.24554E+04
     0.24771E+04
     0.24977E+04
     0.25161E+04
     0.25348E+04
     0.25532E+04
     0.25718E+04
     0.25924E+04
     0.26146E+04
     0.26374E+04
     0.26576E+04
     0.26791E+04
     0.26991E+04
     0.27136E+04
     0.27160E+04
     0.27077E+04
    -0.56661E+02
    -0.42258E+02
    -0.56770E+02
    -0.58151E+02
    -0.47312E+02
    -0.59440E+02
    -0.31099E+02
     0.17349E+02
    -0.96974E+01
     0.15090E+02
     0.32623E+02
    -0.84992E+01
    -0.18335E+02
    -0.45797E+02
    -0.44584E+02
    -0.27381E+02
    -0.35646E+02
    -0.55269E+02
    -0.39508E+02
    -0.44591E+02
    -0.38082E+02
    -0.57697E+02
    -0.34217E+02
    -0.39467E+02
    -0.55345E+02
    -0.62440E+02
    -0.28305E+02
    -0.46392E+02
    -0.49887E+02
    -0.63401E+02
    -0.54311E+02
    -0.56535E+02
    -0.54811E+02
    -0.62394E+02
    -0.55064E+02
    -0.62521E+02
    -0.56084E+02
    -0.58966E+02
    -0.56594E+02
    -0.59915E+02
    -0.59048E+02
    -0.63248E+02
    -0.59787E+02
    -0.64507E+02
    -0.58689E+02
    -0.63576E+02
    -0.56228E+02
    -0.57482E+02
    -0.56255E+02
    -0.61663E+02
    -0.62198E+02
    -0.66896E+02
    -0.49034E+02
    -0.58104E+02
    -0.49472E+02
    -0.57112E+02
    -0.49281E+02
    -0.53667E+02
    -0.50328E+02
    -0.56125E+02
    -0.52679E+02
    -0.59548E+02
    -0.55138E+02
    -0.65808E+02
    -0.53113E+02
    -0.55464E+02
    -0.48999E+02
    -0.55033E+02
    -0.54041E+02
    -0.60240E+02
    -0.27992E+01
    -0.66437E+01
    -0.50937E+01
    -0.58474E+01
    -0.43828E+01
    -0.37372E+01
    -0.33799E+01
    -0.41658E+01
    -0.34803E+01
    -0.16344E+01
    -0.59860E+00
    -0.61355E+00
    -0.18028E+01
    -0.24550E+01
    -0.25311E+01
    -0.11473E+01
    -0.17121E+01
    -0.71688E+00
    -0.12342E+01
    -0.57164E+00
    -0.17235E+01
    -0.14513E+01
    -0.54582E+00
    -0.67812E+00
    -0.14993E+01
    -0.24288E+01
    -0.20847E+01
    -0.33816E+01
    -0.61531E+01
    -0.85395E+01
    -0.56966E+02
    -0.61901E+02
    -0.12011E+02
    -0.74295E+01
    -0.48104E+01
     0.51025E+01
    -0.32134E+01
    -0.44814E+01
    -0.32401E+01
    -0.15342E+02
    -0.96592E+01
    -0.20964E+02
    -0.14253E+02
    -0.36189E+02
    -0.25403E+02
    -0.13687E+02
    -0.97306E+01
    -0.18579E+02
    -0.12649E+02
    -0.25209E+02
    -0.17016E+02
    -0.34090E+02
    -0.25240E+02
    -0.42228E+02
    -0.31392E+02
    -0.47756E+02
    -0.40175E+02
    -0.32668E+02
    -0.36332E+02
    -0.37284E+02
    -0.32216E+02
    -0.36822E+02
    -0.32445E+02
    -0.36713E+02
    -0.31599E+02
    -0.37301E+02
    -0.31724E+02
    -0.39472E+02
    -0.33290E+02
    -0.38113E+02
    -0.33865E+02
    -0.37025E+02
    -0.30945E+02
    -0.38990E+02
    -0.30463E+02
    -0.40903E+02
    -0.44887E+02
    -0.46309E+02
    -0.41345E+02
    -0.46096E+02
    -0.41914E+02
    -0.46166E+02
    -0.41515E+02
    -0.46422E+02
    -0.41655E+02
    -0.47661E+02
    -0.42665E+02
    -0.46335E+02
    -0.42438E+02
    -0.46026E+02
    -0.40232E+02
    -0.48498E+02
    -0.40641E+02
    -0.50928E+01
    -0.63387E+01
    -0.29212E+01
    -0.45161E+01
    -0.15157E+01
    -0.15255E+01
    -0.47583E+00
    -0.13110E+01
    -0.14535E+01
    -0.88767E+00
    -0.12547E+01
    -0.48124E-01
    -0.16678E+01
    -0.10614E+01
    -0.12409E+01
    -0.28591E+00
    -0.85072E+00
    -0.72676E+00
    -0.87249E+00
     0.30721E-01
    -0.25554E+01
    -0.15562E+01
    -0.19379E+01
    -0.18933E+01
    -0.32609E+01
    -0.10578E+01
    -0.37750E+01
    -0.33735E+01
    -0.50605E+01
    -0.50605E+02
    -0.43284E+02
    -0.41272E+02
    -0.31986E+02
    -0.35832E+02
    -0.32805E+02
    -0.27468E+02
    -0.25629E+02
    -0.27964E+01
    -0.31161E+01
    -0.26917E+02
    -0.24627E+02
    -0.26550E+02
    -0.36113E+02
    -0.33406E+02
    -0.36134E+02
    -0.58388E+01
    -0.32024E+01
    -0.80373E+01
    -0.65555E+01
    -0.12113E+02
    -0.91959E+01
    -0.20243E+02
    -0.14270E+02
    -0.67598E+01
    -0.94050E+01
    -0.13395E+02
    -0.10249E+02
    -0.18559E+02
    -0.14613E+02
    -0.24352E+02
    -0.19642E+02
    -0.32660E+02
    -0.25862E+02
    -0.35927E+02
    -0.33927E+02
    -0.34685E+02
    -0.33266E+02
    -0.34739E+02
    -0.32197E+02
    -0.34432E+02
    -0.26555E+02
    -0.24637E+02