# vtk DataFile Version 3.14.1
BMesh by KP LIAO
ASCII
DATASET UNSTRUCTURED_GRID
POINTS 	      8150 	FLOAT
    5.19608 	   2.72287 	   4.22771
    5.19557 	   2.59611 	   4.11715
    5.19508 	   2.52830 	   4.01297
    5.19425 	   2.50022 	   3.83163
    5.54522 	   2.50022 	   3.82590
    5.54707 	   2.81736 	   4.22617
    5.19508 	   2.47183 	   4.01292
    5.19557 	   2.40384 	   4.11699
    5.19607 	   2.27689 	   4.22733
    5.54707 	   2.18240 	   4.22563
    6.24907 	   2.82655 	   4.22293
    6.24722 	   2.50022 	   3.82266
    6.24906 	   2.17321 	   4.22238
    7.88520 	   2.50022 	   3.81510
    7.88705 	   2.17321 	   4.21481
    7.88705 	   2.82655 	   4.21537
    9.29103 	   2.82655 	   4.20888
    9.28918 	   2.50022 	   3.80861
    9.29103 	   2.17321 	   4.20833
    9.65221 	   2.50015 	   3.88494
    9.65220 	   2.49349 	   3.88232
    9.58212 	   2.49347 	   3.90371
    9.60017 	   2.50010 	   3.95384
    9.58235 	   2.48836 	   3.95392
    9.55598 	   2.48367 	   3.94734
    9.58178 	   2.50020 	   3.82806
    9.55519 	   2.50021 	   3.82072
    9.52380 	   2.47773 	   3.94189
    9.52322 	   2.50021 	   3.81469
    9.58212 	   2.50680 	   3.90372
    9.65220 	   2.50682 	   3.88233
    9.58235 	   2.51183 	   3.95394
    9.55598 	   2.51653 	   3.94737
    9.52380 	   2.52248 	   3.94192
    9.83369 	   2.82655 	   4.20638
    9.64203 	   2.82655 	   4.20726
    9.83278 	   2.50005 	   4.00877
    9.64095 	   2.50008 	   3.97340
    9.52503 	   2.82655 	   4.20780
    9.64203 	   2.17321 	   4.20671
    9.83369 	   2.17321 	   4.20582
    9.52503 	   2.17321 	   4.20725
    9.42910 	   2.17321 	   4.20769
    9.42910 	   2.82655 	   4.20825
    9.83369 	   2.49988 	   4.20610
    9.65210 	   2.50017 	   3.86094
    9.42725 	   2.50022 	   3.80797
    5.13658 	   2.51701 	   4.01447
    5.13632 	   2.52673 	   3.95475
    5.13578 	   2.50021 	   3.83957
    5.13632 	   2.47350 	   3.95470
    5.13658 	   2.48311 	   4.01444
    5.07785 	   2.47735 	   3.96138
    5.07803 	   2.49090 	   4.00139
    5.07809 	   2.50006 	   4.01473
    5.07803 	   2.50925 	   4.00140
    5.07785 	   2.52287 	   3.96142
    5.06760 	   2.50007 	   4.00144
    5.01935 	   2.52071 	   3.96168
    5.01953 	   2.50007 	   4.00167
    5.01935 	   2.47951 	   3.96165
    5.07735 	   2.50020 	   3.85480
    5.01897 	   2.50017 	   3.88089
    4.94194 	   2.50011 	   3.96202
    5.13757 	   2.69225 	   4.22795
    5.13757 	   2.30751 	   4.22763
    4.93849 	   2.49988 	   4.22871
    5.13708 	   2.57081 	   4.12118
    5.02504 	   2.49997 	   4.12164
    5.13708 	   2.42913 	   4.12106
    5.21451 	   2.73130 	   4.22714
    5.23313 	   2.73933 	   4.22680
    5.25193 	   2.74695 	   4.22670
    5.27088 	   2.75416 	   4.22678
    5.28999 	   2.76096 	   4.22696
    5.30924 	   2.76733 	   4.22717
    5.32863 	   2.77330 	   4.22732
    5.34813 	   2.77886 	   4.22737
    5.36774 	   2.78405 	   4.22730
    5.38743 	   2.78890 	   4.22715
    5.40719 	   2.79344 	   4.22694
    5.42702 	   2.79769 	   4.22672
    5.44691 	   2.80167 	   4.22653
    5.46685 	   2.80539 	   4.22637
    5.48684 	   2.80883 	   4.22626
    5.50687 	   2.81198 	   4.22620
    5.52695 	   2.81483 	   4.22617
    5.19602 	   2.70792 	   4.21646
    5.19597 	   2.69322 	   4.20490
    5.19592 	   2.67878 	   4.19301
    5.19586 	   2.66457 	   4.18085
    5.19580 	   2.65052 	   4.16849
    5.19575 	   2.63661 	   4.15599
    5.19569 	   2.62290 	   4.14326
    5.19563 	   2.60942 	   4.13029
    5.19551 	   2.58334 	   4.10425
    5.19545 	   2.57072 	   4.09121
    5.19538 	   2.55861 	   4.07770
    5.19532 	   2.54770 	   4.06321
    5.19524 	   2.53849 	   4.04759
    5.19517 	   2.53178 	   4.03075
    5.19499 	   2.52761 	   3.99333
    5.19490 	   2.52907 	   3.97373
    5.19481 	   2.53192 	   3.95427
    5.19472 	   2.53482 	   3.93482
    5.19463 	   2.53654 	   3.91525
    5.19454 	   2.53579 	   3.89560
    5.19445 	   2.53279 	   3.87618
    5.19437 	   2.52685 	   3.85746
    5.19429 	   2.51704 	   3.84049
    5.52572 	   2.50022 	   3.82589
    5.50621 	   2.50022 	   3.82589
    5.48670 	   2.50022 	   3.82594
    5.46719 	   2.50022 	   3.82605
    5.44768 	   2.50022 	   3.82622
    5.42817 	   2.50022 	   3.82644
    5.40866 	   2.50022 	   3.82670
    5.38915 	   2.50022 	   3.82694
    5.36964 	   2.50022 	   3.82711
    5.35014 	   2.50022 	   3.82717
    5.33063 	   2.50022 	   3.82712
    5.31112 	   2.50022 	   3.82698
    5.29161 	   2.50022 	   3.82685
    5.27210 	   2.50022 	   3.82688
    5.25259 	   2.50022 	   3.82726
    5.23310 	   2.50022 	   3.82812
    5.21365 	   2.50022 	   3.82957
    5.54699 	   2.80928 	   4.20794
    5.54691 	   2.79952 	   4.19057
    5.54683 	   2.78817 	   4.17418
    5.54676 	   2.77585 	   4.15851
    5.54669 	   2.76282 	   4.14342
    5.54662 	   2.74930 	   4.12876
    5.54656 	   2.73544 	   4.11444
    5.54649 	   2.72131 	   4.10037
    5.54643 	   2.70692 	   4.08657
    5.54636 	   2.69263 	   4.07266
    5.54630 	   2.67879 	   4.05831
    5.54623 	   2.66544 	   4.04350
    5.54616 	   2.65249 	   4.02834
    5.54609 	   2.64002 	   4.01278
    5.54601 	   2.62797 	   3.99690
    5.54594 	   2.61607 	   3.98090
    5.54587 	   2.60416 	   3.96491
    5.54579 	   2.59228 	   3.94889
    5.54572 	   2.58040 	   3.93288
    5.54564 	   2.56881 	   3.91666
    5.54557 	   2.55804 	   3.89988
    5.54548 	   2.54890 	   3.88218
    5.54540 	   2.54174 	   3.86358
    5.54532 	   2.53276 	   3.84585
    5.54525 	   2.51885 	   3.83171
    5.19499 	   2.47254 	   3.99328
    5.19490 	   2.47112 	   3.97368
    5.19481 	   2.46831 	   3.95422
    5.19472 	   2.46544 	   3.93476
    5.19463 	   2.46375 	   3.91518
    5.19454 	   2.46453 	   3.89554
    5.19445 	   2.46757 	   3.87612
    5.19437 	   2.47354 	   3.85742
    5.19429 	   2.48338 	   3.84046
    5.19551 	   2.41663 	   4.10411
    5.19545 	   2.42927 	   4.09109
    5.19538 	   2.44140 	   4.07760
    5.19532 	   2.45234 	   4.06313
    5.19524 	   2.46158 	   4.04753
    5.19517 	   2.46831 	   4.03070
    5.19602 	   2.29186 	   4.21611
    5.19597 	   2.30658 	   4.20457
    5.19591 	   2.32104 	   4.19270
    5.19586 	   2.33527 	   4.18057
    5.19580 	   2.34934 	   4.16824
    5.19574 	   2.36328 	   4.15576
    5.19569 	   2.37700 	   4.14305
    5.19563 	   2.39051 	   4.13011
    5.21451 	   2.26846 	   4.22674
    5.23313 	   2.26043 	   4.22640
    5.25193 	   2.25281 	   4.22628
    5.27088 	   2.24560 	   4.22635
    5.28999 	   2.23880 	   4.22652
    5.30924 	   2.23243 	   4.22672
    5.32863 	   2.22647 	   4.22686
    5.34813 	   2.22090 	   4.22689
    5.36773 	   2.21571 	   4.22682
    5.38743 	   2.21086 	   4.22666
    5.40719 	   2.20632 	   4.22645
    5.42702 	   2.20207 	   4.22622
    5.44691 	   2.19809 	   4.22601
    5.46685 	   2.19437 	   4.22585
    5.48683 	   2.19093 	   4.22574
    5.50687 	   2.18778 	   4.22567
    5.52695 	   2.18493 	   4.22564
    5.54699 	   2.19051 	   4.20742
    5.54691 	   2.20031 	   4.19006
    5.54683 	   2.21168 	   4.17370
    5.54676 	   2.22403 	   4.15804
    5.54669 	   2.23708 	   4.14297
    5.54662 	   2.25062 	   4.12834
    5.54656 	   2.26451 	   4.11404
    5.54649 	   2.27867 	   4.09999
    5.54643 	   2.29308 	   4.08622
    5.54636 	   2.30739 	   4.07234
    5.54630 	   2.32126 	   4.05801
    5.54623 	   2.33463 	   4.04322
    5.54616 	   2.34760 	   4.02808
    5.54609 	   2.36010 	   4.01255
    5.54601 	   2.37218 	   3.99668
    5.54594 	   2.38411 	   3.98071
    5.54587 	   2.39604 	   3.96473
    5.54579 	   2.40795 	   3.94874
    5.54572 	   2.41985 	   3.93274
    5.54564 	   2.43148 	   3.91655
    5.54557 	   2.44227 	   3.89979
    5.54548 	   2.45144 	   3.88209
    5.54540 	   2.45864 	   3.86351
    5.54532 	   2.46765 	   3.84579
    5.54525 	   2.48158 	   3.83168
    5.19607 	   2.30313 	   4.22735
    5.19608 	   2.32936 	   4.22737
    5.19608 	   2.35560 	   4.22740
    5.19608 	   2.38183 	   4.22742
    5.19608 	   2.40806 	   4.22744
    5.19608 	   2.43430 	   4.22746
    5.19608 	   2.46053 	   4.22749
    5.19608 	   2.48676 	   4.22751
    5.19608 	   2.51300 	   4.22753
    5.19608 	   2.53923 	   4.22755
    5.19608 	   2.56546 	   4.22757
    5.19608 	   2.59170 	   4.22760
    5.19608 	   2.61793 	   4.22762
    5.19608 	   2.64417 	   4.22764
    5.19608 	   2.67040 	   4.22766
    5.19608 	   2.69663 	   4.22769
    5.54707 	   2.24590 	   4.22568
    5.54707 	   2.30939 	   4.22574
    5.54707 	   2.37289 	   4.22579
    5.54707 	   2.43638 	   4.22584
    5.54707 	   2.49988 	   4.22590
    5.54707 	   2.56338 	   4.22595
    5.54707 	   2.62687 	   4.22601
    5.54707 	   2.69037 	   4.22606
    5.54707 	   2.75386 	   4.22611
    6.24896 	   2.82657 	   4.19959
    6.24885 	   2.82659 	   4.17624
    6.24874 	   2.82661 	   4.15290
    6.24863 	   2.82663 	   4.12955
    6.24853 	   2.82665 	   4.10621
    6.24842 	   2.82637 	   4.08287
    6.24831 	   2.82467 	   4.05959
    6.24821 	   2.82069 	   4.03660
    6.24810 	   2.81377 	   4.01433
    6.24801 	   2.80350 	   3.99339
    6.24792 	   2.79076 	   3.97383
    6.24783 	   2.77651 	   3.95535
    6.24775 	   2.76121 	   3.93772
    6.24767 	   2.74534 	   3.92060
    6.24759 	   2.72922 	   3.90371
    6.24751 	   2.71288 	   3.88704
    6.24744 	   2.69626 	   3.87064
    6.24737 	   2.67904 	   3.85489
    6.24730 	   2.66032 	   3.84097
    6.24725 	   2.63942 	   3.83064
    6.24723 	   2.61684 	   3.82488
    6.24722 	   2.59360 	   3.82288
    6.24722 	   2.57026 	   3.82272
    6.24722 	   2.54691 	   3.82270
    6.24722 	   2.52356 	   3.82268
    5.58589 	   2.82129 	   4.22615
    5.62481 	   2.82403 	   4.22609
    5.66380 	   2.82570 	   4.22594
    5.70281 	   2.82651 	   4.22571
    5.74182 	   2.82671 	   4.22541
    5.78084 	   2.82655 	   4.22510
    5.81986 	   2.82624 	   4.22479
[...]
CELL_DATA 	      9403
SCALARS 	cell_scalars 	FLOAT 	         1
LOOKUP_TABLE 	DEFAULT
    -0.42867E+02
    -0.37545E+02
    -0.45119E+02
    -0.51611E+02
    -0.42731E+02
    -0.46360E+02
    -0.51763E+02
    -0.42223E+02
    -0.41378E+02
    -0.52911E+02
    -0.48870E+02
    -0.39772E+02
    -0.46103E+02
    -0.53131E+02
    -0.54145E+02
    -0.51417E+02
    -0.45265E+02
    -0.48419E+02
    -0.65531E+02
    -0.65655E+02
    -0.66249E+02
    -0.67263E+02
    -0.63730E+02
    -0.63952E+02
    -0.64289E+02
    -0.62781E+02
    -0.62807E+02
    -0.64499E+02
    -0.63211E+02
    -0.60600E+02
    -0.60486E+02
    -0.62208E+02
    -0.58663E+02
    -0.55708E+02
    -0.58098E+02
    -0.59320E+02
    -0.71830E+02
    -0.68899E+02
    -0.69364E+02
    -0.69918E+02
    -0.66651E+02
    -0.67172E+02
    -0.68385E+02
    -0.66783E+02
    -0.68796E+02
    -0.71091E+02
    -0.65673E+02
    -0.63961E+02
    -0.68505E+02
    -0.67542E+02
    -0.62066E+02
    -0.59724E+02
    -0.64931E+02
    -0.64720E+02
    -0.77009E+02
    -0.74733E+02
    -0.74327E+02
    -0.73199E+02
    -0.71123E+02
    -0.70713E+02
    -0.70663E+02
    -0.70341E+02
    -0.71033E+02
    -0.70938E+02
    -0.67405E+02
    -0.67945E+02
    -0.71130E+02
    -0.67737E+02
    -0.66521E+02
    -0.68303E+02
    -0.67241E+02
    -0.63844E+02
    -0.75917E+02
    -0.74757E+02
    -0.75426E+02
    -0.75898E+02
    -0.74363E+02
    -0.73989E+02
    -0.74324E+02
    -0.73525E+02
    -0.73456E+02
    -0.73170E+02
    -0.70089E+02
    -0.69828E+02
    -0.71631E+02
    -0.67737E+02
    -0.67297E+02
    -0.70745E+02
    -0.66682E+02
    -0.64405E+02
    -0.75099E+02
    -0.73667E+02
    -0.73453E+02
    -0.74798E+02
    -0.73906E+02
    -0.74343E+02
    -0.75471E+02
    -0.73668E+02
    -0.74584E+02
    -0.74308E+02
    -0.72092E+02
    -0.72869E+02
    -0.74099E+02
    -0.70527E+02
    -0.69938E+02
    -0.71538E+02
    -0.69189E+02
    -0.69638E+02
    -0.74048E+02
    -0.74220E+02
    -0.75026E+02
    -0.75161E+02
    -0.74792E+02
    -0.74665E+02
    -0.75145E+02
    -0.73590E+02
    -0.74611E+02
    -0.74888E+02
    -0.74136E+02
    -0.76735E+02
    -0.74890E+02
    -0.72479E+02
    -0.74318E+02
    -0.73416E+02
    -0.70769E+02
    -0.71324E+02
    -0.71577E+02
    -0.74094E+02
    -0.75224E+02
    -0.75053E+02
    -0.75660E+02
    -0.74998E+02
    -0.76725E+02
    -0.76015E+02
    -0.75977E+02
    -0.76551E+02
    -0.75143E+02
    -0.76969E+02
    -0.75423E+02
    -0.73414E+02
    -0.75620E+02
    -0.74099E+02
    -0.71061E+02
    -0.73164E+02
    -0.71930E+02
    -0.73854E+02
    -0.73947E+02
    -0.74974E+02
    -0.75493E+02
    -0.74918E+02
    -0.76384E+02
    -0.75672E+02
    -0.76575E+02
    -0.78993E+02
    -0.76514E+02
    -0.78121E+02
    -0.79043E+02
    -0.75362E+02
    -0.74950E+02
    -0.72133E+02
    -0.70518E+02
    -0.72676E+02
    -0.72828E+02
    -0.73786E+02
    -0.75130E+02
    -0.76843E+02
    -0.76650E+02
    -0.75167E+02
    -0.76854E+02
    -0.76270E+02
    -0.76331E+02
    -0.77939E+02
    -0.75599E+02
    -0.77939E+02
    -0.82442E+02
    -0.76201E+02
    -0.73198E+02
    -0.72003E+02
    -0.70175E+02
    -0.69231E+02
    -0.70622E+02
    -0.72477E+02
    -0.73922E+02
    -0.75747E+02
    -0.76451E+02
    -0.75210E+02
    -0.76719E+02
    -0.78480E+02
    -0.76714E+02
    -0.75688E+02
    -0.74509E+02
    -0.73841E+02
    -0.74479E+02
    -0.71715E+02
    -0.67956E+02
    -0.68167E+02
    -0.67483E+02
    -0.66201E+02
    -0.70022E+02
    -0.68937E+02
    -0.70058E+02
    -0.71033E+02
    -0.69304E+02
    -0.69079E+02
    -0.69309E+02
    -0.70003E+02
    -0.69741E+02
    -0.68305E+02
    -0.69295E+02
    -0.67711E+02
    -0.66088E+02
    -0.67800E+02
    -0.65803E+02
    -0.63536E+02
    -0.62885E+02
    -0.61669E+02
    -0.64307E+02
    -0.61744E+02
    -0.65439E+02
    -0.64784E+02
    -0.62710E+02
    -0.63974E+02
    -0.61525E+02
    -0.61284E+02
    -0.63081E+02
    -0.62832E+02
    -0.62122E+02
    -0.57498E+02
    -0.55029E+02
    -0.55266E+02
    -0.52146E+02
    -0.53074E+02
    -0.57632E+02
    -0.42311E+02
    -0.52178E+02
    -0.55508E+02
    -0.55745E+02
    -0.50559E+02
    -0.56053E+02
    -0.53779E+02
    -0.46158E+02
    -0.51021E+02
    -0.50587E+02
    -0.42160E+02
    -0.45786E+02
    -0.44045E+02
    -0.25755E+02
    -0.21078E+02
    -0.26694E+02
    -0.14061E+02
     0.17714E+01
     0.12675E+02
    -0.46194E+02
    -0.41777E+02
    -0.34911E+02
    -0.34539E+02
    -0.33113E+02
    -0.26372E+02
    -0.20264E+02
    -0.13050E+02
    -0.58382E+01
     0.28453E+01
     0.96416E+01
     0.25570E+02
     0.45648E+02
     0.43949E+02
     0.59831E+02
     0.84909E+02
     0.10150E+03
     0.11803E+03
    -0.15452E+02
     0.36958E+01
     0.28249E+02
     0.22389E+02
     0.24302E+02
     0.42558E+02
     0.60095E+02
     0.71532E+02
     0.84695E+02
     0.10391E+03
     0.11064E+03
     0.12993E+03
     0.16264E+03
     0.16490E+03
     0.19022E+03
     0.21933E+03
     0.22928E+03
     0.25893E+03
     0.71356E+02
     0.10916E+03
     0.13677E+03
     0.13557E+03
     0.13797E+03
     0.16217E+03
     0.18047E+03
     0.20196E+03
     0.22579E+03
     0.23567E+03
     0.24751E+03
     0.27301E+03
     0.29955E+03
     0.31147E+03
     0.33723E+03
     0.35302E+03
     0.37298E+03
     0.39805E+03
     0.22484E+03
     0.26483E+03
     0.29769E+03
     0.28773E+03
     0.28378E+03
     0.31317E+03
     0.33424E+03
     0.34942E+03
     0.37856E+03
     0.39592E+03
     0.40036E+03
     0.42465E+03
     0.44034E+03
     0.46318E+03
     0.48316E+03
     0.49212E+03
     0.52839E+03
     0.53553E+03
     0.40358E+03
     0.44485E+03
     0.47858E+03
     0.45077E+03
     0.44077E+03
     0.47500E+03
     0.49787E+03
     0.50984E+03
     0.52440E+03
     0.54419E+03
     0.57122E+03
     0.58812E+03
     0.58908E+03
     0.61844E+03
     0.63104E+03
     0.64197E+03
     0.67572E+03
     0.67877E+03
     0.58400E+03
     0.62094E+03
     0.64932E+03
     0.61150E+03
     0.60862E+03
     0.65201E+03
     0.67099E+03
     0.67820E+03
     0.68771E+03
     0.69723E+03
     0.71621E+03
     0.73229E+03
     0.75370E+03
     0.79488E+03
     0.78498E+03
     0.78427E+03
     0.81591E+03
     0.83951E+03
     0.75870E+03
     0.78764E+03
     0.79898E+03
     0.78277E+03
     0.79825E+03
     0.83273E+03
     0.84927E+03
     0.85623E+03
     0.86258E+03
     0.86951E+03
     0.88021E+03
     0.89127E+03
     0.90666E+03
     0.93155E+03
     0.94162E+03
     0.94805E+03
     0.97990E+03
     0.10068E+04
     0.93091E+03
     0.95040E+03
     0.94757E+03
     0.95278E+03
     0.97655E+03
     0.10106E+04
     0.10350E+04
     0.10420E+04
     0.10457E+04
     0.10523E+04
     0.10618E+04
     0.10718E+04
     0.10840E+04
     0.11007E+04
     0.11137E+04
     0.11200E+04
     0.11303E+04
     0.11455E+04
     0.11072E+04
     0.11230E+04
     0.11256E+04
     0.11354E+04
     0.11530E+04
     0.11791E+04
     0.12011E+04
     0.12123E+04
     0.12204E+04
     0.12283E+04
     0.12389E+04
     0.12506E+04
     0.12640E+04
     0.12827E+04
     0.13010E+04
     0.13089E+04
     0.13145E+04
     0.13231E+04
     0.12953E+04
     0.13104E+04
     0.13197E+04
     0.13315E+04
     0.13437E+04
     0.13571E+04
     0.13705E+04
     0.13822E+04
     0.13921E+04
     0.14014E+04
     0.14121E+04
     0.14231E+04
     0.14336E+04
     0.14441E+04
     0.14548E+04
     0.14646E+04
     0.14743E+04
     0.14854E+04
     0.14651E+04
     0.14829E+04
     0.14955E+04
     0.15087E+04
     0.15207E+04
     0.15308E+04
     0.15405E+04
     0.15491E+04
     0.15581E+04
     0.15685E+04
     0.15781E+04
     0.15861E+04
     0.15936E+04
     0.16011E+04
     0.16092E+04
     0.16189E+04
     0.16285E+04
     0.16372E+04
     0.15621E+04
     0.15987E+04
     0.16194E+04
     0.16327E+04
     0.16430E+04
     0.16514E+04
     0.16597E+04
     0.16671E+04
     0.16775E+04
     0.16908E+04
     0.16993E+04
     0.17021E+04
     0.17052E+04
     0.17101E+04
     0.17156E+04
     0.17225E+04
     0.17284E+04
     0.17329E+04
    -0.50398E+02
    -0.45352E+02
    -0.50755E+02
    -0.54701E+02
    -0.54239E+02
    -0.47409E+02
    -0.40359E+02
    -0.49184E+02
    -0.55877E+02
    -0.47708E+02
    -0.45891E+02
    -0.53624E+02
    -0.50013E+02
    -0.44438E+02
    -0.51634E+02
    -0.46729E+02
    -0.38954E+02
    -0.44823E+02
    -0.59564E+02
    -0.57957E+02
    -0.56049E+02
    -0.58573E+02
    -0.61424E+02
    -0.59593E+02
    -0.60509E+02
    -0.63712E+02
    -0.67173E+02
    -0.65261E+02
    -0.64135E+02
    -0.67618E+02
    -0.67119E+02
    -0.64470E+02
    -0.66889E+02
    -0.65896E+02
    -0.65679E+02
    -0.65763E+02
    -0.63946E+02
    -0.65609E+02
    -0.60704E+02
    -0.62340E+02
    -0.66811E+02
    -0.67842E+02
    -0.65863E+02
    -0.67194E+02
    -0.71522E+02
    -0.70157E+02
    -0.67746E+02
    -0.68969E+02
    -0.68273E+02
    -0.67188E+02
    -0.69636E+02
    -0.69069E+02
    -0.68078E+02
    -0.70409E+02
    -0.64264E+02
    -0.67663E+02
    -0.68543E+02
    -0.67376E+02
    -0.67741E+02
    -0.71112E+02
    -0.71063E+02
    -0.69584E+02
    -0.71295E+02
    -0.71864E+02
    -0.70763E+02
    -0.70263E+02
    -0.70761E+02
    -0.71354E+02
    -0.72701E+02
    -0.73540E+02
    -0.73585E+02
    -0.75869E+02
    -0.67125E+02
    -0.67318E+02
    -0.70642E+02
    -0.68063E+02
    -0.68066E+02
    -0.71519E+02
    -0.69770E+02
    -0.69989E+02
    -0.73269E+02
    -0.73633E+02
    -0.73471E+02
    -0.73568E+02
    -0.73631E+02
    -0.74646E+02
    -0.75768E+02
    -0.75206E+02
    -0.75107E+02
    -0.75960E+02
    -0.67925E+02
    -0.67959E+02
    -0.71317E+02
    -0.70395E+02
    -0.70667E+02
    -0.73723E+02
    -0.71129E+02
    -0.71090E+02
    -0.74183E+02
    -0.74401E+02
    -0.73622E+02
    -0.74968E+02
    -0.73707E+02
    -0.73777E+02
    -0.74894E+02
    -0.73588E+02
    -0.73650E+02
    -0.74996E+02
    -0.69870E+02
    -0.70261E+02
    -0.73648E+02
    -0.74628E+02
    -0.72260E+02
    -0.74129E+02
    -0.76097E+02
    -0.73961E+02
    -0.74772E+02
    -0.74852E+02
    -0.74071E+02
    -0.75500E+02
    -0.74697E+02
    -0.74778E+02
    -0.75245E+02
    -0.74871E+02
    -0.74037E+02
    -0.73992E+02
    -0.73128E+02
    -0.71103E+02
    -0.74448E+02
    -0.76369E+02
    -0.73574E+02
    -0.74917E+02
    -0.76865E+02
    -0.75113E+02
    -0.76332E+02
    -0.76202E+02
    -0.76895E+02
    -0.77821E+02
    -0.75647E+02
    -0.76484E+02
    -0.75387E+02
    -0.75134E+02
    -0.74088E+02
    -0.71871E+02
    -0.72895E+02
    -0.70561E+02
    -0.72966E+02
    -0.76029E+02
    -0.75433E+02
    -0.78438E+02
    -0.78114E+02
    -0.76675E+02
    -0.79121E+02
    -0.76733E+02
    -0.75838E+02
    -0.76857E+02
    -0.76008E+02
    -0.76961E+02
    -0.75534E+02
    -0.74042E+02
    -0.74142E+02
    -0.72432E+02
    -0.69600E+02
    -0.70413E+02
    -0.73328E+02
    -0.74442E+02
    -0.76132E+02
    -0.81969E+02
    -0.77868E+02
    -0.75661E+02
    -0.78525E+02
    -0.76877E+02
    -0.76290E+02
    -0.77239E+02
    -0.76314E+02
    -0.77568E+02
    -0.76913E+02
    -0.75373E+02
    -0.74186E+02
    -0.73291E+02
    -0.66164E+02
    -0.67341E+02
    -0.68352E+02
    -0.68484E+02
    -0.71977E+02
    -0.74490E+02
    -0.73717E+02
    -0.74490E+02
    -0.76165E+02
    -0.76996E+02
    -0.78418E+02
    -0.76679E+02
    -0.75124E+02
    -0.76212E+02
    -0.75518E+02
    -0.73952E+02
    -0.72618E+02
    -0.71295E+02
    -0.59917E+02
    -0.62070E+02
    -0.63685E+02
    -0.66391E+02
    -0.68148E+02
    -0.66202E+02
    -0.67684E+02
    -0.69728E+02
    -0.68843E+02
    -0.69879E+02
    -0.70214E+02
    -0.69525E+02
    -0.69118E+02
    -0.69323E+02
    -0.71043E+02
    -0.70079E+02
    -0.68876E+02
    -0.70564E+02
    -0.40613E+02
    -0.56553E+02
    -0.52817E+02
    -0.52489E+02
    -0.55324E+02
    -0.54597E+02
    -0.57110E+02
    -0.62239E+02
    -0.62832E+02
    -0.62829E+02
    -0.61331E+02
    -0.61613E+02
    -0.64146E+02
    -0.62963E+02
    -0.65180E+02
    -0.65648E+02
    -0.61779E+02
    -0.64234E+02
     0.15281E+02
     0.20486E+01
    -0.13854E+02
    -0.26851E+02
    -0.21305E+02
    -0.25665E+02
    -0.42985E+02
    -0.45138E+02
    -0.42276E+02
    -0.50650E+02
    -0.51076E+02
    -0.46151E+02
    -0.53600E+02
    -0.56175E+02
    -0.51148E+02
    -0.56013E+02
    -0.56223E+02
    -0.52437E+02
     0.11832E+03
     0.99498E+02
     0.85272E+02
     0.59009E+02
     0.43776E+02
     0.45578E+02
     0.24524E+02
     0.86943E+01
     0.26580E+01
    -0.59503E+01
    -0.13558E+02
    -0.20366E+02
    -0.25731E+02
    -0.32772E+02
    -0.34668E+02
    -0.34529E+02
    -0.42187E+02
    -0.46743E+02
     0.25788E+03
     0.23158E+03
     0.22307E+03
     0.18957E+03
     0.16337E+03
     0.16122E+03
     0.12845E+03
     0.10902E+03
     0.10339E+03
     0.84481E+02
     0.69985E+02
     0.58568E+02
     0.41287E+02
     0.23148E+02
     0.21502E+02
     0.27546E+02
     0.26152E+01
    -0.16848E+02
     0.39923E+03
     0.37806E+03
     0.35573E+03
     0.33654E+03
     0.30857E+03
     0.29785E+03
     0.27277E+03
     0.24636E+03
     0.23410E+03
     0.22460E+03
     0.20050E+03
     0.17797E+03
     0.16294E+03
     0.13590E+03
     0.13486E+03
     0.13326E+03
     0.10679E+03
     0.68993E+02
     0.53685E+03
     0.53186E+03
     0.49290E+03
     0.48238E+03
     0.46052E+03
     0.43982E+03
     0.42436E+03
     0.40042E+03
     0.39373E+03
     0.37767E+03
     0.34892E+03
     0.33314E+03
     0.31054E+03
     0.28583E+03
     0.28822E+03
     0.29409E+03
     0.26197E+03
     0.22198E+03
     0.67989E+03
     0.67697E+03
     0.64246E+03
     0.63095E+03
     0.61716E+03
     0.58751E+03
     0.58741E+03
     0.56524E+03
     0.54078E+03
     0.52440E+03
     0.51017E+03
     0.49645E+03
     0.47123E+03
     0.43949E+03
     0.45192E+03
     0.47598E+03
     0.44240E+03
     0.40142E+03
     0.83886E+03
     0.81446E+03
     0.78538E+03
     0.78616E+03
     0.79376E+03
     0.75127E+03
     0.73095E+03
     0.71598E+03
     0.69723E+03
     0.68785E+03
     0.67836E+03
     0.66938E+03
     0.64706E+03
     0.60562E+03
     0.61327E+03
     0.64948E+03
     0.61901E+03
     0.58218E+03
     0.10050E+04
     0.97732E+03
     0.94881E+03
     0.94273E+03
     0.93058E+03
     0.90459E+03
     0.89021E+03
     0.88088E+03
     0.87043E+03
     0.86291E+03
     0.85609E+03
     0.84782E+03
     0.82879E+03
     0.79400E+03
     0.78225E+03
     0.79919E+03
     0.78531E+03
     0.75721E+03
     0.11453E+04
     0.11307E+04
     0.11206E+04
     0.11138E+04
     0.10998E+04
     0.10830E+04
     0.10713E+04
     0.10618E+04
     0.10528E+04
     0.10466E+04
     0.10419E+04
     0.10317E+04
     0.10046E+04
     0.97292E+03
     0.95426E+03
     0.94932E+03
     0.94888E+03
     0.92971E+03
     0.13231E+04
     0.13145E+04
     0.13078E+04
     0.12975E+04
     0.12801E+04
     0.12626E+04
     0.12492E+04
     0.12390E+04
     0.12296E+04
     0.12203E+04
     0.12107E+04
     0.11983E+04
     0.11764E+04
     0.11535E+04
     0.11395E+04
     0.11299E+04
     0.11242E+04
     0.11070E+04
     0.14846E+04
     0.14740E+04
     0.14643E+04
     0.14541E+04
     0.14435E+04
     0.14326E+04
     0.14220E+04
     0.14124E+04
     0.14027E+04
     0.13921E+04
     0.13813E+04
     0.13704E+04
     0.13583E+04
     0.13459E+04
     0.13341E+04
     0.13223E+04
     0.13115E+04
     0.12943E+04
     0.16371E+04
     0.16285E+04
     0.16191E+04
     0.16096E+04
     0.16012E+04
     0.15935E+04
     0.15862E+04
     0.15789E+04
     0.15696E+04
     0.15587E+04
     0.15492E+04
     0.15408E+04
     0.15317E+04
     0.15217E+04
     0.15098E+04
     0.14967E+04
     0.14832E+04
     0.14626E+04
     0.17331E+04
     0.17284E+04
     0.17224E+04
     0.17153E+04
     0.17097E+04
     0.17049E+04
     0.17020E+04
     0.16995E+04
     0.16910E+04
     0.16775E+04
     0.16667E+04
     0.16593E+04
     0.16516E+04
     0.16432E+04
     0.16330E+04
     0.16196E+04
     0.15988E+04
     0.15621E+04
    -0.33594E+02
    -0.32301E+02
    -0.32036E+02
    -0.30467E+02
    -0.29922E+02
    -0.30005E+02
    -0.38695E+02
    -0.18013E+02
    -0.30046E+02
    -0.19122E+02
    -0.22842E+02
    -0.37334E+02
    -0.38938E+02
    -0.41678E+02
    -0.36700E+02
    -0.13748E+02
    -0.28198E+02
    -0.17367E+02
    -0.20148E+02
    -0.34641E+02
    -0.35738E+02
    -0.42118E+02
    -0.29739E+02
    -0.26035E+02
    -0.27850E+02
    -0.23116E+02
    -0.23777E+02
    -0.41134E+02
    -0.43344E+02
    -0.46360E+02
    -0.18809E+02
    -0.38160E+02
    -0.40642E+02
    -0.45640E+02
    -0.32595E+02
    -0.41056E+02
    -0.38851E+02
    -0.44584E+02
    -0.37087E+02
    -0.39769E+02
    -0.29673E+02
    -0.28276E+02
    -0.21016E+02
    -0.18514E+02
    -0.23653E+02
    -0.36741E+02
    -0.38939E+02
    -0.42646E+02
    -0.26970E+02
    -0.23576E+02
    -0.92944E+01
    -0.27078E+02
    -0.34002E+02
    -0.40503E+02
    -0.39636E+02
    -0.45508E+02
    -0.39638E+02
    -0.42711E+02
    -0.33208E+02
    -0.31728E+02
    -0.23176E+02
    -0.19426E+02
    -0.24724E+02
    -0.36800E+02
    -0.41593E+02
    -0.46056E+02
    -0.34808E+02
    -0.31775E+02
    -0.19121E+02
    -0.32087E+02
    -0.30274E+02
    -0.29508E+02
    -0.28802E+02
    -0.26024E+02
    -0.25339E+02
    -0.24365E+02
    -0.24854E+02
    -0.23496E+02
    -0.23550E+02
    -0.22879E+02
    -0.23240E+02
    -0.23053E+02
    -0.23746E+02
    -0.23031E+02
    -0.23591E+02
    -0.23118E+02
    -0.24446E+02
    -0.23780E+02
    -0.24235E+02
    -0.23253E+02
    -0.24657E+02
    -0.24037E+02
    -0.24308E+02
    -0.22642E+02
    -0.23704E+02
    -0.23888E+02
    -0.24172E+02
    -0.24288E+02
    -0.26988E+02
    -0.27350E+02
    -0.38967E+02
    -0.37166E+02
    -0.27872E+02
    -0.32047E+02
    -0.33159E+02
    -0.31724E+02
    -0.32611E+02
    -0.36277E+02
    -0.33906E+02
    -0.30598E+02
    -0.34622E+02
    -0.27802E+02
    -0.29490E+02
    -0.36941E+02
    -0.33501E+02
    -0.31099E+02
    -0.30262E+02
    -0.29051E+02
    -0.30762E+02
    -0.31318E+02
    -0.30329E+02
    -0.26321E+02
    -0.30218E+02
    -0.24067E+02
    -0.26320E+02
    -0.32492E+02
    -0.29582E+02
    -0.30725E+02
    -0.32514E+02
    -0.33822E+02
    -0.31478E+02
    -0.33995E+02
    -0.32521E+02
    -0.31951E+02
    -0.32125E+02
    -0.30163E+02
    -0.31309E+02
    -0.32016E+02
    -0.31407E+02
    -0.33847E+02
    -0.32287E+02
    -0.30367E+02
    -0.31032E+02
    -0.25404E+02
    -0.28647E+02
    -0.28896E+02
    -0.30705E+02
    -0.31955E+02
    -0.29728E+02
    -0.31709E+02
    -0.30492E+02
    -0.29619E+02
    -0.30097E+02
    -0.27870E+02
    -0.29301E+02
    -0.29001E+02
    -0.28603E+02
    -0.30790E+02
    -0.29703E+02
    -0.25021E+02
    -0.28180E+02
    -0.19139E+02
    -0.24763E+02
    -0.27321E+02
    -0.28462E+02
    -0.25719E+02
    -0.26700E+02
    -0.24769E+02
    -0.25388E+02
    -0.23974E+02
    -0.24530E+02
    -0.24232E+02
    -0.24112E+02
    -0.23779E+02
    -0.23184E+02
    -0.23423E+02
    -0.23703E+02
    -0.23510E+02
    -0.23117E+02
    -0.23802E+02
    -0.23750E+02
    -0.24338E+02
    -0.24039E+02
    -0.24779E+02
    -0.25037E+02
    -0.25845E+02
    -0.25643E+02
    -0.26829E+02
    -0.26599E+02
    -0.28351E+02
    -0.27555E+02
    -0.29572E+02
    -0.32039E+02
    -0.27859E+02
    -0.36235E+02
    -0.32751E+02
    -0.27351E+02
    -0.26416E+02
    -0.28554E+02
    -0.27280E+02
    -0.30345E+02
    -0.29307E+02
    -0.29638E+02
    -0.28430E+02
    -0.29875E+02
    -0.28370E+02
    -0.27261E+02
    -0.28656E+02
    -0.31665E+02
    -0.29682E+02
    -0.30510E+02
    -0.29612E+02
    -0.30164E+02
    -0.28902E+02
    -0.31327E+02
    -0.29195E+02
    -0.28056E+02
    -0.29344E+02
    -0.29103E+02
    -0.28412E+02
    -0.28095E+02
    -0.27808E+02
    -0.28126E+02
    -0.26922E+02
    -0.28081E+02
    -0.27189E+02
    -0.28286E+02
    -0.27897E+02
    -0.28449E+02
    -0.27573E+02
    -0.27304E+02
    -0.27106E+02
    -0.27159E+02
    -0.29824E+02
    -0.29145E+02