# vtk DataFile Version 3.14.1
BMesh by KP LIAO
ASCII
DATASET UNSTRUCTURED_GRID
POINTS 	      8150 	FLOAT
    5.19542 	   2.72302 	   4.21106
    5.19540 	   2.59614 	   4.10063
    5.19539 	   2.52822 	   3.99653
    5.19536 	   2.49994 	   3.81522
    5.54636 	   2.49994 	   3.81105
    5.54642 	   2.81751 	   4.21098
    5.19539 	   2.47175 	   3.99654
    5.19540 	   2.40387 	   4.10068
    5.19542 	   2.27705 	   4.21116
    5.54642 	   2.18255 	   4.21113
    6.24842 	   2.82670 	   4.21087
    6.24836 	   2.49994 	   3.81095
    6.24842 	   2.17337 	   4.21102
    7.88636 	   2.49994 	   3.81070
    7.88642 	   2.17337 	   4.21077
    7.88642 	   2.82670 	   4.21062
    9.29042 	   2.82670 	   4.21040
    9.29036 	   2.49994 	   3.81048
    9.29042 	   2.17337 	   4.21055
    9.65304 	   2.49996 	   3.88842
    9.65304 	   2.49329 	   3.88581
    9.58287 	   2.49330 	   3.90689
    9.60069 	   2.49997 	   3.95710
    9.58288 	   2.48824 	   3.95710
    9.55654 	   2.48354 	   3.95041
    9.58286 	   2.49995 	   3.83123
    9.55631 	   2.49994 	   3.82377
    9.52438 	   2.47760 	   3.94482
    9.52436 	   2.49994 	   3.81760
    9.58287 	   2.50663 	   3.90688
    9.65304 	   2.50662 	   3.88581
    9.58288 	   2.51171 	   3.95710
    9.55654 	   2.51640 	   3.95041
    9.52438 	   2.52234 	   3.94481
    9.83309 	   2.82670 	   4.21032
    9.64142 	   2.82670 	   4.21035
    9.83306 	   2.49999 	   4.01306
    9.64139 	   2.49998 	   3.97684
    9.52442 	   2.82670 	   4.21037
    9.64142 	   2.17337 	   4.21050
    9.83309 	   2.17337 	   4.21047
    9.52442 	   2.17337 	   4.21052
    9.42849 	   2.17337 	   4.21053
    9.42849 	   2.82670 	   4.21038
    9.83309 	   2.50003 	   4.21040
    9.65304 	   2.49995 	   3.86442
    9.42843 	   2.49994 	   3.81046
    5.13688 	   2.51693 	   3.99778
    5.13688 	   2.52659 	   3.93804
    5.13686 	   2.49994 	   3.82289
    5.13688 	   2.47335 	   3.93805
    5.13688 	   2.48304 	   3.99779
    5.07838 	   2.47721 	   3.94446
    5.07839 	   2.49081 	   3.98446
    5.07839 	   2.49998 	   3.99779
    5.07839 	   2.50915 	   3.98446
    5.07838 	   2.52273 	   3.94445
    5.06796 	   2.49998 	   3.98446
    5.01988 	   2.52057 	   3.94446
    5.01989 	   2.49998 	   3.98447
    5.01988 	   2.47937 	   3.94447
    5.07836 	   2.49995 	   3.83786
    5.01987 	   2.49995 	   3.86370
    4.94247 	   2.49997 	   3.94448
    5.13691 	   2.69241 	   4.21107
    5.13691 	   2.30766 	   4.21116
    4.93783 	   2.50003 	   4.21115
    5.13690 	   2.57085 	   4.10443
    5.02486 	   2.50001 	   4.10447
    5.13690 	   2.42917 	   4.10447
    5.21386 	   2.73145 	   4.21056
    5.23248 	   2.73948 	   4.21030
    5.25128 	   2.74710 	   4.21027
    5.27023 	   2.75431 	   4.21043
    5.28934 	   2.76111 	   4.21069
    5.30859 	   2.76748 	   4.21098
    5.32797 	   2.77345 	   4.21121
    5.34748 	   2.77901 	   4.21133
    5.36708 	   2.78421 	   4.21135
    5.38677 	   2.78906 	   4.21128
    5.40654 	   2.79359 	   4.21116
    5.42637 	   2.79784 	   4.21102
    5.44626 	   2.80182 	   4.21091
    5.46620 	   2.80554 	   4.21084
    5.48618 	   2.80898 	   4.21082
    5.50622 	   2.81214 	   4.21084
    5.52630 	   2.81498 	   4.21090
    5.19542 	   2.70806 	   4.19982
    5.19542 	   2.69334 	   4.18828
    5.19542 	   2.67889 	   4.17640
    5.19541 	   2.66467 	   4.16426
    5.19541 	   2.65061 	   4.15192
    5.19541 	   2.63668 	   4.13943
    5.19541 	   2.62296 	   4.12672
    5.19541 	   2.60946 	   4.11376
    5.19540 	   2.58336 	   4.08775
    5.19540 	   2.57073 	   4.07472
    5.19540 	   2.55860 	   4.06123
    5.19540 	   2.54767 	   4.04675
    5.19539 	   2.53845 	   4.03114
    5.19539 	   2.53172 	   4.01431
    5.19539 	   2.52751 	   3.97689
    5.19538 	   2.52895 	   3.95728
    5.19538 	   2.53178 	   3.93782
    5.19538 	   2.53466 	   3.91837
    5.19537 	   2.53636 	   3.89879
    5.19537 	   2.53558 	   3.87915
    5.19537 	   2.53256 	   3.85973
    5.19536 	   2.52661 	   3.84102
    5.19536 	   2.51677 	   3.82405
    5.52685 	   2.49994 	   3.81095
    5.50734 	   2.49994 	   3.81087
    5.48783 	   2.49994 	   3.81083
    5.46832 	   2.49994 	   3.81085
    5.44881 	   2.49994 	   3.81094
    5.42930 	   2.49994 	   3.81107
    5.40980 	   2.49994 	   3.81124
    5.39029 	   2.49994 	   3.81139
    5.37078 	   2.49994 	   3.81147
    5.35127 	   2.49994 	   3.81145
    5.33176 	   2.49994 	   3.81131
    5.31225 	   2.49994 	   3.81109
    5.29274 	   2.49994 	   3.81087
    5.27323 	   2.49994 	   3.81082
    5.25372 	   2.49994 	   3.81110
    5.23423 	   2.49994 	   3.81188
    5.21477 	   2.49994 	   3.81324
    5.54642 	   2.80941 	   4.19277
    5.54642 	   2.79963 	   4.17541
    5.54641 	   2.78826 	   4.15903
    5.54641 	   2.77593 	   4.14337
    5.54641 	   2.76288 	   4.12829
    5.54641 	   2.74935 	   4.11365
    5.54640 	   2.73547 	   4.09934
    5.54640 	   2.72132 	   4.08528
    5.54640 	   2.70692 	   4.07150
    5.54640 	   2.69261 	   4.05761
    5.54640 	   2.67876 	   4.04327
    5.54639 	   2.66539 	   4.02848
    5.54639 	   2.65243 	   4.01333
    5.54639 	   2.63994 	   3.99779
    5.54639 	   2.62788 	   3.98191
    5.54638 	   2.61596 	   3.96593
    5.54638 	   2.60403 	   3.94995
    5.54638 	   2.59214 	   3.93395
    5.54638 	   2.58024 	   3.91795
    5.54637 	   2.56862 	   3.90174
    5.54637 	   2.55784 	   3.88498
    5.54637 	   2.54868 	   3.86728
    5.54637 	   2.54150 	   3.84869
    5.54636 	   2.53250 	   3.83096
    5.54636 	   2.51858 	   3.81685
    5.19539 	   2.47244 	   3.97690
    5.19538 	   2.47100 	   3.95729
    5.19538 	   2.46816 	   3.93784
    5.19538 	   2.46527 	   3.91838
    5.19537 	   2.46356 	   3.89881
    5.19537 	   2.46433 	   3.87916
    5.19537 	   2.46734 	   3.85974
    5.19536 	   2.47329 	   3.84103
    5.19536 	   2.48312 	   3.82406
    5.19540 	   2.41665 	   4.08779
    5.19540 	   2.42927 	   4.07476
    5.19540 	   2.44139 	   4.06125
    5.19540 	   2.45232 	   4.04677
    5.19539 	   2.46154 	   4.03115
    5.19539 	   2.46825 	   4.01432
    5.19542 	   2.29200 	   4.19992
    5.19542 	   2.30671 	   4.18837
    5.19542 	   2.32115 	   4.17648
    5.19541 	   2.33538 	   4.16433
    5.19541 	   2.34943 	   4.15199
    5.19541 	   2.36335 	   4.13949
    5.19541 	   2.37706 	   4.12677
    5.19541 	   2.39056 	   4.11381
    5.21386 	   2.26861 	   4.21066
    5.23248 	   2.26058 	   4.21041
    5.25128 	   2.25296 	   4.21038
    5.27023 	   2.24575 	   4.21054
    5.28934 	   2.23896 	   4.21081
    5.30859 	   2.23258 	   4.21110
    5.32797 	   2.22662 	   4.21133
    5.34748 	   2.22105 	   4.21146
    5.36708 	   2.21586 	   4.21148
    5.38677 	   2.21101 	   4.21142
    5.40654 	   2.20647 	   4.21129
    5.42637 	   2.20222 	   4.21116
    5.44626 	   2.19824 	   4.21105
    5.46620 	   2.19452 	   4.21098
    5.48618 	   2.19108 	   4.21096
    5.50622 	   2.18793 	   4.21099
    5.52630 	   2.18508 	   4.21105
    5.54642 	   2.19064 	   4.19291
    5.54642 	   2.20042 	   4.17554
    5.54641 	   2.21178 	   4.15916
    5.54641 	   2.22411 	   4.14349
    5.54641 	   2.23714 	   4.12841
    5.54641 	   2.25067 	   4.11376
    5.54640 	   2.26455 	   4.09944
    5.54640 	   2.27868 	   4.08538
    5.54640 	   2.29308 	   4.07159
    5.54640 	   2.30738 	   4.05770
    5.54640 	   2.32123 	   4.04335
    5.54639 	   2.33459 	   4.02855
    5.54639 	   2.34754 	   4.01340
    5.54639 	   2.36003 	   3.99785
    5.54639 	   2.37208 	   3.98197
    5.54638 	   2.38400 	   3.96598
    5.54638 	   2.39591 	   3.95000
    5.54638 	   2.40780 	   3.93399
    5.54638 	   2.41969 	   3.91798
    5.54637 	   2.43130 	   3.90177
    5.54637 	   2.44207 	   3.88500
    5.54637 	   2.45122 	   3.86730
    5.54637 	   2.45840 	   3.84870
    5.54636 	   2.46739 	   3.83098
    5.54636 	   2.48131 	   3.81685
    5.19542 	   2.30328 	   4.21115
    5.19542 	   2.32951 	   4.21115
    5.19542 	   2.35575 	   4.21114
    5.19542 	   2.38198 	   4.21114
    5.19542 	   2.40821 	   4.21113
    5.19542 	   2.43445 	   4.21112
    5.19542 	   2.46068 	   4.21112
    5.19542 	   2.48692 	   4.21111
    5.19542 	   2.51315 	   4.21111
    5.19542 	   2.53938 	   4.21110
    5.19542 	   2.56562 	   4.21109
    5.19542 	   2.59185 	   4.21109
    5.19542 	   2.61808 	   4.21108
    5.19542 	   2.64432 	   4.21108
    5.19542 	   2.67055 	   4.21107
    5.19542 	   2.69679 	   4.21106
    5.54642 	   2.24605 	   4.21111
    5.54642 	   2.30954 	   4.21110
    5.54642 	   2.37304 	   4.21108
    5.54642 	   2.43654 	   4.21107
    5.54642 	   2.50003 	   4.21105
    5.54642 	   2.56353 	   4.21104
    5.54642 	   2.62702 	   4.21103
    5.54642 	   2.69052 	   4.21101
    5.54642 	   2.75402 	   4.21100
    6.24842 	   2.82669 	   4.18753
    6.24841 	   2.82669 	   4.16418
    6.24841 	   2.82668 	   4.14084
    6.24841 	   2.82668 	   4.11749
    6.24840 	   2.82667 	   4.09414
    6.24840 	   2.82637 	   4.07080
    6.24840 	   2.82465 	   4.04753
    6.24839 	   2.82064 	   4.02454
    6.24839 	   2.81370 	   4.00228
    6.24839 	   2.80340 	   3.98135
    6.24838 	   2.79065 	   3.96181
    6.24838 	   2.77637 	   3.94334
    6.24838 	   2.76105 	   3.92573
    6.24838 	   2.74517 	   3.90862
    6.24837 	   2.72903 	   3.89175
    6.24837 	   2.71267 	   3.87510
    6.24837 	   2.69604 	   3.85872
    6.24837 	   2.67879 	   3.84299
    6.24836 	   2.66006 	   3.82909
    6.24836 	   2.63915 	   3.81878
    6.24836 	   2.61657 	   3.81304
    6.24836 	   2.59332 	   3.81107
    6.24836 	   2.56998 	   3.81093
    6.24836 	   2.54663 	   3.81094
    6.24836 	   2.52329 	   3.81094
    5.58524 	   2.82144 	   4.21114
    5.62416 	   2.82418 	   4.21124
    5.66315 	   2.82585 	   4.21127
    5.70216 	   2.82666 	   4.21121
    5.74117 	   2.82686 	   4.21109
    5.78019 	   2.82670 	   4.21094
    5.81921 	   2.82639 	   4.21081
[...]
CELL_DATA 	      9403
SCALARS 	cell_scalars 	FLOAT 	         1
LOOKUP_TABLE 	DEFAULT
    -0.43267E+02
    -0.35254E+02
    -0.32478E+02
    -0.45491E+02
    -0.39807E+02
    -0.37847E+02
    -0.49633E+02
    -0.50792E+02
    -0.44887E+02
    -0.46291E+02
    -0.52596E+02
    -0.48339E+02
    -0.39085E+02
    -0.40660E+02
    -0.47062E+02
    -0.49680E+02
    -0.44853E+02
    -0.38287E+02
    -0.55832E+02
    -0.57890E+02
    -0.55837E+02
    -0.59914E+02
    -0.60448E+02
    -0.58549E+02
    -0.61940E+02
    -0.61805E+02
    -0.58890E+02
    -0.59860E+02
    -0.63042E+02
    -0.60057E+02
    -0.57317E+02
    -0.56895E+02
    -0.59880E+02
    -0.59492E+02
    -0.57413E+02
    -0.55352E+02
    -0.64235E+02
    -0.64420E+02
    -0.64160E+02
    -0.64734E+02
    -0.65016E+02
    -0.64566E+02
    -0.65317E+02
    -0.65469E+02
    -0.64291E+02
    -0.64701E+02
    -0.67258E+02
    -0.65322E+02
    -0.65129E+02
    -0.66678E+02
    -0.65058E+02
    -0.62807E+02
    -0.61456E+02
    -0.64794E+02
    -0.68200E+02
    -0.69996E+02
    -0.70664E+02
    -0.70040E+02
    -0.70272E+02
    -0.68969E+02
    -0.69444E+02
    -0.70166E+02
    -0.68414E+02
    -0.67085E+02
    -0.69523E+02
    -0.67172E+02
    -0.65057E+02
    -0.66960E+02
    -0.65959E+02
    -0.65073E+02
    -0.66519E+02
    -0.66055E+02
    -0.67174E+02
    -0.68943E+02
    -0.69956E+02
    -0.70877E+02
    -0.71893E+02
    -0.70140E+02
    -0.71650E+02
    -0.72081E+02
    -0.70325E+02
    -0.69876E+02
    -0.70210E+02
    -0.67688E+02
    -0.66281E+02
    -0.68579E+02
    -0.67778E+02
    -0.67068E+02
    -0.68436E+02
    -0.67390E+02
    -0.69789E+02
    -0.70289E+02
    -0.70486E+02
    -0.71176E+02
    -0.71484E+02
    -0.70763E+02
    -0.70974E+02
    -0.70618E+02
    -0.71227E+02
    -0.71881E+02
    -0.71544E+02
    -0.70551E+02
    -0.69400E+02
    -0.70422E+02
    -0.69362E+02
    -0.69662E+02
    -0.71068E+02
    -0.68182E+02
    -0.70443E+02
    -0.70883E+02
    -0.71940E+02
    -0.71968E+02
    -0.73298E+02
    -0.72264E+02
    -0.70918E+02
    -0.71064E+02
    -0.71616E+02
    -0.71807E+02
    -0.71500E+02
    -0.70946E+02
    -0.69393E+02
    -0.70055E+02
    -0.69733E+02
    -0.69685E+02
    -0.69981E+02
    -0.67895E+02
    -0.69385E+02
    -0.70742E+02
    -0.71799E+02
    -0.71189E+02
    -0.72401E+02
    -0.71849E+02
    -0.70906E+02
    -0.72095E+02
    -0.72598E+02
    -0.73656E+02
    -0.73215E+02
    -0.71672E+02
    -0.70396E+02
    -0.71010E+02
    -0.71141E+02
    -0.70391E+02
    -0.70045E+02
    -0.68570E+02
    -0.70519E+02
    -0.71817E+02
    -0.72137E+02
    -0.71318E+02
    -0.71727E+02
    -0.71413E+02
    -0.71270E+02
    -0.71969E+02
    -0.72176E+02
    -0.74291E+02
    -0.74467E+02
    -0.72548E+02
    -0.73267E+02
    -0.73435E+02
    -0.71939E+02
    -0.70891E+02
    -0.70803E+02
    -0.69591E+02
    -0.70418E+02
    -0.71161E+02
    -0.72943E+02
    -0.72446E+02
    -0.72545E+02
    -0.73431E+02
    -0.72888E+02
    -0.73054E+02
    -0.72433E+02
    -0.72031E+02
    -0.72338E+02
    -0.71802E+02
    -0.71534E+02
    -0.71165E+02
    -0.70286E+02
    -0.71156E+02
    -0.71167E+02
    -0.68536E+02
    -0.68451E+02
    -0.69331E+02
    -0.69955E+02
    -0.69697E+02
    -0.70062E+02
    -0.71826E+02
    -0.72321E+02
    -0.72603E+02
    -0.71607E+02
    -0.70056E+02
    -0.71354E+02
    -0.72498E+02
    -0.69084E+02
    -0.66862E+02
    -0.66100E+02
    -0.65953E+02
    -0.65715E+02
    -0.63847E+02
    -0.67752E+02
    -0.68563E+02
    -0.67679E+02
    -0.68249E+02
    -0.67361E+02
    -0.67293E+02
    -0.67759E+02
    -0.67972E+02
    -0.65855E+02
    -0.64121E+02
    -0.64281E+02
    -0.64289E+02
    -0.60703E+02
    -0.61031E+02
    -0.60631E+02
    -0.57163E+02
    -0.55920E+02
    -0.55166E+02
    -0.63123E+02
    -0.61965E+02
    -0.62576E+02
    -0.62634E+02
    -0.59138E+02
    -0.60482E+02
    -0.60596E+02
    -0.58112E+02
    -0.56691E+02
    -0.56130E+02
    -0.54143E+02
    -0.50545E+02
    -0.49464E+02
    -0.48058E+02
    -0.41025E+02
    -0.36849E+02
    -0.33643E+02
    -0.26022E+02
    -0.54265E+02
    -0.53931E+02
    -0.49722E+02
    -0.46019E+02
    -0.45684E+02
    -0.43324E+02
    -0.38435E+02
    -0.38879E+02
    -0.37159E+02
    -0.27522E+02
    -0.21428E+02
    -0.22755E+02
    -0.15555E+02
    -0.11854E+01
     0.24319E+01
     0.11660E+02
     0.27792E+02
     0.39592E+02
    -0.10289E+02
    -0.42533E+01
    -0.16218E+02
    -0.41395E+01
     0.12931E+02
     0.45413E+01
     0.54583E+01
     0.25388E+02
     0.28842E+02
     0.29715E+02
     0.47760E+02
     0.63995E+02
     0.74881E+02
     0.89738E+02
     0.11015E+03
     0.12918E+03
     0.13768E+03
     0.15519E+03
     0.74004E+02
     0.95806E+02
     0.95823E+02
     0.95251E+02
     0.11530E+03
     0.13331E+03
     0.12874E+03
     0.13105E+03
     0.15753E+03
     0.17336E+03
     0.17624E+03
     0.18876E+03
     0.21447E+03
     0.23564E+03
     0.25040E+03
     0.26547E+03
     0.28356E+03
     0.30507E+03
     0.21267E+03
     0.24560E+03
     0.26181E+03
     0.25964E+03
     0.26757E+03
     0.28881E+03
     0.30421E+03
     0.30308E+03
     0.30797E+03
     0.32997E+03
     0.35002E+03
     0.35698E+03
     0.36741E+03
     0.38760E+03
     0.40507E+03
     0.42209E+03
     0.43647E+03
     0.45076E+03
     0.39618E+03
     0.42278E+03
     0.44526E+03
     0.44812E+03
     0.44936E+03
     0.46413E+03
     0.47972E+03
     0.48933E+03
     0.49033E+03
     0.49271E+03
     0.50499E+03
     0.52441E+03
     0.53979E+03
     0.54881E+03
     0.55776E+03
     0.57307E+03
     0.58811E+03
     0.60331E+03
     0.58728E+03
     0.61182E+03
     0.62786E+03
     0.63518E+03
     0.64040E+03
     0.64490E+03
     0.65320E+03
     0.66347E+03
     0.66918E+03
     0.67660E+03
     0.67847E+03
     0.68414E+03
     0.69957E+03
     0.71009E+03
     0.72264E+03
     0.73599E+03
     0.74446E+03
     0.75455E+03
     0.77902E+03
     0.79886E+03
     0.81051E+03
     0.81927E+03
     0.82482E+03
     0.82752E+03
     0.83074E+03
     0.83544E+03
     0.84242E+03
     0.84964E+03
     0.85400E+03
     0.85984E+03
     0.86810E+03
     0.87290E+03
     0.88034E+03
     0.89363E+03
     0.90249E+03
     0.91010E+03
     0.96802E+03
     0.98655E+03
     0.99920E+03
     0.10036E+04
     0.10052E+04
     0.10087E+04
     0.10118E+04
     0.10142E+04
     0.10178E+04
     0.10221E+04
     0.10258E+04
     0.10297E+04
     0.10353E+04
     0.10429E+04
     0.10519E+04
     0.10607E+04
     0.10676E+04
     0.10733E+04
     0.11563E+04
     0.11750E+04
     0.11908E+04
     0.11933E+04
     0.11921E+04
     0.11937E+04
     0.11948E+04
     0.11958E+04
     0.11982E+04
     0.12022E+04
     0.12065E+04
     0.12099E+04
     0.12141E+04
     0.12200E+04
     0.12264E+04
     0.12312E+04
     0.12346E+04
     0.12378E+04
     0.13434E+04
     0.13603E+04
     0.13736E+04
     0.13807E+04
     0.13825E+04
     0.13813E+04
     0.13792E+04
     0.13787E+04
     0.13804E+04
     0.13840E+04
     0.13890E+04
     0.13934E+04
     0.13981E+04
     0.14033E+04
     0.14075E+04
     0.14108E+04
     0.14127E+04
     0.14138E+04
     0.15291E+04
     0.15419E+04
     0.15517E+04
     0.15585E+04
     0.15623E+04
     0.15632E+04
     0.15622E+04
     0.15615E+04
     0.15615E+04
     0.15626E+04
     0.15655E+04
     0.15689E+04
     0.15720E+04
     0.15756E+04
     0.15793E+04
     0.15826E+04
     0.15855E+04
     0.15878E+04
     0.16989E+04
     0.17132E+04
     0.17249E+04
     0.17318E+04
     0.17341E+04
     0.17344E+04
     0.17333E+04
     0.17319E+04
     0.17313E+04
     0.17317E+04
     0.17330E+04
     0.17344E+04
     0.17356E+04
     0.17371E+04
     0.17390E+04
     0.17409E+04
     0.17425E+04
     0.17432E+04
     0.18287E+04
     0.18520E+04
     0.18632E+04
     0.18649E+04
     0.18623E+04
     0.18584E+04
     0.18546E+04
     0.18515E+04
     0.18495E+04
     0.18488E+04
     0.18492E+04
     0.18495E+04
     0.18503E+04
     0.18514E+04
     0.18519E+04
     0.18519E+04
     0.18515E+04
     0.18505E+04
    -0.39706E+02
    -0.48559E+02
    -0.51063E+02
    -0.47178E+02
    -0.41579E+02
    -0.44650E+02
    -0.51639E+02
    -0.53028E+02
    -0.46654E+02
    -0.45314E+02
    -0.51026E+02
    -0.49722E+02
    -0.38884E+02
    -0.41198E+02
    -0.45998E+02
    -0.32711E+02
    -0.34384E+02
    -0.43286E+02
    -0.55450E+02
    -0.57420E+02
    -0.59508E+02
    -0.59839E+02
    -0.56957E+02
    -0.58455E+02
    -0.60859E+02
    -0.63702E+02
    -0.60402E+02
    -0.59089E+02
    -0.61864E+02
    -0.61262E+02
    -0.57901E+02
    -0.60658E+02
    -0.60372E+02
    -0.55787E+02
    -0.57723E+02
    -0.55801E+02
    -0.64656E+02
    -0.61037E+02
    -0.62790E+02
    -0.64789E+02
    -0.65872E+02
    -0.65885E+02
    -0.65365E+02
    -0.66034E+02
    -0.63708E+02
    -0.63996E+02
    -0.65114E+02
    -0.64376E+02
    -0.63781E+02
    -0.65063E+02
    -0.64953E+02
    -0.64201E+02
    -0.64457E+02
    -0.64283E+02
    -0.66040E+02
    -0.66194E+02
    -0.65033E+02
    -0.66132E+02
    -0.67274E+02
    -0.67381E+02
    -0.68784E+02
    -0.68934E+02
    -0.66432E+02
    -0.67934E+02
    -0.69543E+02
    -0.68456E+02
    -0.68246E+02
    -0.70342E+02
    -0.70218E+02
    -0.70707E+02
    -0.70001E+02
    -0.68180E+02
    -0.67215E+02
    -0.68102E+02
    -0.67062E+02
    -0.68070E+02
    -0.69384E+02
    -0.68398E+02
    -0.69457E+02
    -0.71179E+02
    -0.70134E+02
    -0.70185E+02
    -0.72025E+02
    -0.71252E+02
    -0.69806E+02
    -0.71975E+02
    -0.70999E+02
    -0.70127E+02
    -0.69221E+02
    -0.67226E+02
    -0.67118E+02
    -0.70620E+02
    -0.69679E+02
    -0.69444E+02
    -0.70512E+02
    -0.69340E+02
    -0.70692E+02
    -0.71586E+02
    -0.71420E+02
    -0.70737E+02
    -0.70456E+02
    -0.70696E+02
    -0.70569E+02
    -0.71549E+02
    -0.71270E+02
    -0.70741E+02
    -0.70662E+02
    -0.69925E+02
    -0.66794E+02
    -0.69914E+02
    -0.69889E+02
    -0.69745E+02
    -0.70073E+02
    -0.69371E+02
    -0.70945E+02
    -0.71549E+02
    -0.71694E+02
    -0.71427E+02
    -0.70992E+02
    -0.70773E+02
    -0.72247E+02
    -0.73397E+02
    -0.71978E+02
    -0.72193E+02
    -0.71225E+02
    -0.70631E+02
    -0.66797E+02
    -0.68694E+02
    -0.70222E+02
    -0.71066E+02
    -0.71030E+02
    -0.70464E+02
    -0.71738E+02
    -0.73552E+02
    -0.73872E+02
    -0.72640E+02
    -0.72120E+02
    -0.71042E+02
    -0.72613E+02
    -0.72847E+02
    -0.70957E+02
    -0.71852E+02
    -0.70868E+02
    -0.69481E+02
    -0.67091E+02
    -0.69130E+02
    -0.70640E+02
    -0.71843E+02
    -0.73456E+02
    -0.73362E+02
    -0.72581E+02
    -0.74416E+02
    -0.74248E+02
    -0.72183E+02
    -0.71799E+02
    -0.71210E+02
    -0.71455E+02
    -0.70896E+02
    -0.70959E+02
    -0.72164E+02
    -0.71918E+02
    -0.70793E+02
    -0.68231E+02
    -0.70961E+02
    -0.70947E+02
    -0.70154E+02
    -0.71123E+02
    -0.71547E+02
    -0.71852E+02
    -0.72317E+02
    -0.72017E+02
    -0.72432E+02
    -0.72875E+02
    -0.72923E+02
    -0.72710E+02
    -0.71048E+02
    -0.72212E+02
    -0.72978E+02
    -0.71369E+02
    -0.71366E+02
    -0.63736E+02
    -0.65690E+02
    -0.66067E+02
    -0.66223E+02
    -0.66959E+02
    -0.69219E+02
    -0.72633E+02
    -0.71367E+02
    -0.69984E+02
    -0.71489E+02
    -0.72427E+02
    -0.72217E+02
    -0.71543E+02
    -0.69624E+02
    -0.69524E+02
    -0.69963E+02
    -0.69530E+02
    -0.69479E+02
    -0.55228E+02
    -0.56042E+02
    -0.57336E+02
    -0.60914E+02
    -0.61169E+02
    -0.60715E+02
    -0.64520E+02
    -0.64464E+02
    -0.64025E+02
    -0.65462E+02
    -0.67489E+02
    -0.67576E+02
    -0.67151E+02
    -0.67212E+02
    -0.68061E+02
    -0.67627E+02
    -0.68645E+02
    -0.68641E+02
    -0.26405E+02
    -0.33891E+02
    -0.36910E+02
    -0.41087E+02
    -0.48109E+02
    -0.49521E+02
    -0.50658E+02
    -0.54251E+02
    -0.56087E+02
    -0.56293E+02
    -0.57634E+02
    -0.60372E+02
    -0.60295E+02
    -0.59031E+02
    -0.62531E+02
    -0.62472E+02
    -0.61892E+02
    -0.63424E+02
     0.39071E+02
     0.28421E+02
     0.12338E+02
     0.23929E+01
    -0.13008E+01
    -0.15573E+02
    -0.22832E+02
    -0.21606E+02
    -0.27517E+02
    -0.36974E+02
    -0.38685E+02
    -0.38347E+02
    -0.43240E+02
    -0.45646E+02
    -0.45973E+02
    -0.49694E+02
    -0.53948E+02
    -0.54270E+02
     0.15433E+03
     0.13697E+03
     0.12882E+03
     0.11017E+03
     0.89347E+02
     0.74400E+02
     0.63820E+02
     0.47838E+02
     0.29883E+02
     0.28867E+02
     0.25611E+02
     0.57911E+01
     0.46158E+01
     0.12956E+02
    -0.40930E+01
    -0.16184E+02
    -0.42410E+01
    -0.10258E+02
     0.30461E+03
     0.28321E+03
     0.26489E+03
     0.25012E+03
     0.23500E+03
     0.21396E+03
     0.18850E+03
     0.17584E+03
     0.17316E+03
     0.15756E+03
     0.13109E+03
     0.12864E+03
     0.13330E+03
     0.11553E+03
     0.95000E+02
     0.95808E+02
     0.95923E+02
     0.73943E+02
     0.45065E+03
     0.43632E+03
     0.42169E+03
     0.40495E+03
     0.38749E+03
     0.36755E+03
     0.35679E+03
     0.34931E+03
     0.32947E+03
     0.30768E+03
     0.30277E+03
     0.30284E+03
     0.29196E+03
     0.26478E+03
     0.25947E+03
     0.26171E+03
     0.24571E+03
     0.21309E+03
     0.60346E+03
     0.58842E+03
     0.57299E+03
     0.55762E+03
     0.54910E+03
     0.54059E+03
     0.52458E+03
     0.50723E+03
     0.49240E+03
     0.49001E+03
     0.48927E+03
     0.47982E+03
     0.46443E+03
     0.45245E+03
     0.44796E+03
     0.44510E+03
     0.42275E+03
     0.39636E+03
     0.75460E+03
     0.74487E+03
     0.73615E+03
     0.72236E+03
     0.70974E+03
     0.69942E+03
     0.68405E+03
     0.67586E+03
     0.67648E+03
     0.66938E+03
     0.66391E+03
     0.65333E+03
     0.64503E+03
     0.64055E+03
     0.63529E+03
     0.62793E+03
     0.61190E+03
     0.58741E+03
     0.90984E+03
     0.90213E+03
     0.89335E+03
     0.88010E+03
     0.87263E+03
     0.86819E+03
     0.86006E+03
     0.85409E+03
     0.84963E+03
     0.84247E+03
     0.83560E+03
     0.83085E+03
     0.82773E+03
     0.82506E+03
     0.81955E+03
     0.81068E+03
     0.79908E+03
     0.77905E+03
     0.10731E+04
     0.10674E+04
     0.10604E+04
     0.10517E+04
     0.10427E+04
     0.10352E+04
     0.10300E+04
     0.10260E+04
     0.10221E+04
     0.10176E+04
     0.10140E+04
     0.10118E+04
     0.10090E+04
     0.10053E+04
     0.10034E+04
     0.99920E+03
     0.98670E+03
     0.96810E+03
     0.12378E+04
     0.12344E+04
     0.12311E+04
     0.12262E+04
     0.12197E+04
     0.12137E+04
     0.12099E+04
     0.12067E+04
     0.12025E+04
     0.11984E+04
     0.11958E+04
     0.11947E+04
     0.11937E+04
     0.11921E+04
     0.11933E+04
     0.11909E+04
     0.11752E+04
     0.11564E+04
     0.14137E+04
     0.14126E+04
     0.14108E+04
     0.14075E+04
     0.14032E+04
     0.13980E+04
     0.13932E+04
     0.13890E+04
     0.13843E+04
     0.13806E+04
     0.13788E+04
     0.13791E+04
     0.13811E+04
     0.13826E+04
     0.13811E+04
     0.13740E+04
     0.13605E+04
     0.13435E+04
     0.15879E+04
     0.15857E+04
     0.15827E+04
     0.15793E+04
     0.15754E+04
     0.15716E+04
     0.15682E+04
     0.15650E+04
     0.15625E+04
     0.15616E+04
     0.15616E+04
     0.15624E+04
     0.15634E+04
     0.15625E+04
     0.15585E+04
     0.15519E+04
     0.15422E+04
     0.15292E+04
     0.17433E+04
     0.17425E+04
     0.17408E+04
     0.17388E+04
     0.17368E+04
     0.17353E+04
     0.17340E+04
     0.17328E+04
     0.17316E+04
     0.17312E+04
     0.17320E+04
     0.17336E+04
     0.17347E+04
     0.17344E+04
     0.17319E+04
     0.17253E+04
     0.17142E+04
     0.16992E+04
     0.18505E+04
     0.18515E+04
     0.18519E+04
     0.18519E+04
     0.18513E+04
     0.18503E+04
     0.18495E+04
     0.18491E+04
     0.18488E+04
     0.18495E+04
     0.18516E+04
     0.18547E+04
     0.18584E+04
     0.18623E+04
     0.18648E+04
     0.18632E+04
     0.18521E+04
     0.18290E+04
    -0.26065E+02
    -0.12947E+02
    -0.34285E+02
    -0.23218E+02
    -0.11961E+02
    -0.29094E+02
    -0.34322E+02
    -0.22974E+02
    -0.18395E+02
    -0.20073E+02
    -0.70305E+01
    -0.21247E+02
    -0.19944E+02
    -0.42324E+02
    -0.34116E+02
    -0.22370E+02
    -0.18495E+02
    -0.20891E+02
    -0.56303E+01
    -0.19481E+02
    -0.17536E+02
    -0.41382E+02
    -0.29001E+02
    -0.30469E+02
    -0.26537E+02
    -0.27382E+02
    -0.17918E+02
    -0.35130E+02
    -0.35174E+02
    -0.50495E+02
    -0.14300E+02
    -0.33433E+02
    -0.33947E+02
    -0.50150E+02
    -0.21285E+02
    -0.35904E+02
    -0.21506E+02
    -0.32767E+02
    -0.16826E+02
    -0.25351E+02
    -0.15441E+02
    -0.26073E+02
    -0.25297E+02
    -0.42027E+02
    -0.37325E+02
    -0.47151E+02
    -0.31955E+02
    -0.38914E+02
    -0.27020E+02
    -0.39289E+02
    -0.37807E+02
    -0.48532E+02
    -0.24593E+02
    -0.38502E+02
    -0.23433E+02
    -0.33992E+02
    -0.19077E+02
    -0.27746E+02
    -0.20824E+02
    -0.35571E+02
    -0.34101E+02
    -0.46414E+02
    -0.38484E+02
    -0.48232E+02
    -0.32744E+02
    -0.39681E+02
    -0.28352E+02
    -0.40231E+02
    -0.39236E+02
    -0.49066E+02
    -0.10902E+02
    -0.11098E+02
    -0.83232E+01
    -0.87984E+01
    -0.77077E+01
    -0.77193E+01
    -0.70344E+01
    -0.80902E+01
    -0.78334E+01
    -0.81743E+01
    -0.77281E+01
    -0.79516E+01
    -0.78413E+01
    -0.82795E+01
    -0.82025E+01
    -0.81255E+01
    -0.72383E+01
    -0.83100E+01
    -0.80231E+01
    -0.82888E+01
    -0.75442E+01
    -0.81123E+01
    -0.88402E+01
    -0.89232E+01
    -0.80402E+01
    -0.81125E+01
    -0.79097E+01
    -0.85602E+01
    -0.74392E+01
    -0.10569E+02
    -0.45916E+02
    -0.45321E+02
    -0.10684E+02
    -0.82920E+01
    -0.82821E+01
    -0.53964E+01
    -0.74909E+01
    -0.93342E+01
    -0.70741E+01
    -0.12617E+02
    -0.10404E+02
    -0.12177E+02
    -0.10873E+02
    -0.22264E+02
    -0.14239E+02
    -0.78854E+01
    -0.77714E+01
    -0.44544E+01
    -0.74645E+01
    -0.72510E+01
    -0.63581E+01
    -0.11032E+02
    -0.95239E+01
    -0.95727E+01
    -0.93424E+01
    -0.20570E+02
    -0.12517E+02
    -0.88698E+01
    -0.10987E+02
    -0.12009E+02
    -0.10042E+02
    -0.10876E+02
    -0.99029E+01
    -0.13195E+02
    -0.10232E+02
    -0.17791E+02
    -0.12567E+02
    -0.19771E+02
    -0.15355E+02
    -0.18042E+02
    -0.16016E+02
    -0.18474E+02
    -0.14739E+02
    -0.26406E+02
    -0.18084E+02
    -0.85609E+01
    -0.97804E+01
    -0.11043E+02
    -0.95740E+01
    -0.98503E+01
    -0.95715E+01
    -0.10875E+02
    -0.95671E+01
    -0.14917E+02
    -0.11130E+02
    -0.18527E+02
    -0.14096E+02
    -0.16808E+02
    -0.14709E+02
    -0.17352E+02
    -0.14062E+02
    -0.23857E+02
    -0.15977E+02
    -0.80325E+01
    -0.76566E+01
    -0.71614E+01
    -0.75862E+01
    -0.72799E+01
    -0.71114E+01
    -0.80171E+01
    -0.71651E+01
    -0.62597E+01
    -0.64136E+01
    -0.58241E+01
    -0.62431E+01
    -0.49641E+01
    -0.50549E+01
    -0.63751E+01
    -0.56251E+01
    -0.74551E+01
    -0.60230E+01
    -0.73167E+01
    -0.78323E+01
    -0.68518E+01
    -0.67570E+01
    -0.66305E+01
    -0.69825E+01
    -0.75578E+01
    -0.71117E+01
    -0.77208E+01
    -0.78956E+01
    -0.75846E+01
    -0.28965E+02
    -0.19955E+02
    -0.30280E+02
    -0.21988E+02
    -0.81140E+01
    -0.73128E+01
    -0.85271E+01
    -0.79020E+01
    -0.74866E+01
    -0.70508E+01
    -0.89864E+01
    -0.85945E+01
    -0.89821E+01
    -0.82222E+01
    -0.79864E+01
    -0.84439E+01
    -0.83005E+01
    -0.83317E+01
    -0.90666E+01
    -0.90897E+01
    -0.10869E+02
    -0.97180E+01
    -0.13703E+02
    -0.11381E+02
    -0.75017E+01
    -0.77185E+01
    -0.80332E+01
    -0.79400E+01
    -0.94343E+01
    -0.86872E+01
    -0.99352E+01
    -0.10002E+02
    -0.12956E+02
    -0.10722E+02
    -0.90254E+01
    -0.84563E+01
    -0.95717E+01
    -0.89868E+01
    -0.10411E+02
    -0.95106E+01
    -0.10969E+02
    -0.91643E+01
    -0.85317E+01