# vtk DataFile Version 3.14.1
BMesh by KP LIAO
ASCII
DATASET UNSTRUCTURED_GRID
POINTS 	      8150 	FLOAT
    5.19297 	   2.72258 	   4.14388
    5.19526 	   2.59605 	   4.03309
    5.19741 	   2.52844 	   3.92879
    5.20116 	   2.50073 	   3.74743
    5.55217 	   2.50074 	   3.75058
    5.54389 	   2.81707 	   4.15140
    5.19741 	   2.47198 	   3.92863
    5.19527 	   2.40378 	   4.03254
    5.19299 	   2.27661 	   4.14260
    5.54392 	   2.18212 	   4.14958
    6.24574 	   2.82626 	   4.16593
    6.25402 	   2.50074 	   3.76508
    6.24577 	   2.17293 	   4.16405
    7.89167 	   2.50074 	   3.79891
    7.88342 	   2.17293 	   4.19789
    7.88339 	   2.82626 	   4.19976
    9.28709 	   2.82626 	   4.22876
    9.29537 	   2.50074 	   3.82791
    9.28712 	   2.17293 	   4.22689
    9.65635 	   2.50052 	   3.91339
    9.65640 	   2.49386 	   3.91075
    9.58581 	   2.49380 	   3.93037
    9.60258 	   2.50032 	   3.98096
    9.58477 	   2.48859 	   3.98056
    9.55858 	   2.48391 	   3.97331
    9.58738 	   2.50068 	   3.85475
    9.56098 	   2.50071 	   3.84674
    9.52654 	   2.47799 	   3.96703
    9.52917 	   2.50072 	   3.83991
    9.58581 	   2.50713 	   3.93041
    9.65640 	   2.50719 	   3.91079
    9.58477 	   2.51206 	   3.98062
    9.55857 	   2.51677 	   3.97340
    9.52654 	   2.52273 	   3.96716
    9.82964 	   2.82626 	   4.23997
    9.63801 	   2.82626 	   4.23601
    9.83373 	   2.50016 	   4.04175
    9.64286 	   2.50027 	   4.00154
    9.52104 	   2.82626 	   4.23360
    9.63805 	   2.17293 	   4.23414
    9.82968 	   2.17293 	   4.23810
    9.52107 	   2.17293 	   4.23172
    9.42516 	   2.17293 	   4.22974
    9.42512 	   2.82626 	   4.23162
    9.82966 	   2.49960 	   4.23904
    9.65684 	   2.50059 	   3.88939
    9.43341 	   2.50074 	   3.83077
    5.13889 	   2.51715 	   3.92879
    5.14013 	   2.52700 	   3.86910
    5.14251 	   2.50071 	   3.75389
    5.14013 	   2.47376 	   3.86895
    5.13889 	   2.48326 	   3.92870
    5.08151 	   2.47760 	   3.87415
    5.08069 	   2.49107 	   3.91418
    5.08041 	   2.50021 	   3.92754
    5.08069 	   2.50942 	   3.91423
    5.08151 	   2.52312 	   3.87428
    5.07026 	   2.50025 	   3.91399
    5.02302 	   2.52096 	   3.87307
    5.02220 	   2.50025 	   3.91300
    5.02303 	   2.47976 	   3.87295
    5.08371 	   2.50067 	   3.76764
    5.02469 	   2.50059 	   3.79225
    4.94563 	   2.50036 	   3.87141
    5.13447 	   2.69197 	   4.14258
    5.13450 	   2.30722 	   4.14148
    4.93545 	   2.49960 	   4.13792
    5.13668 	   2.57074 	   4.03559
    5.02467 	   2.49990 	   4.03307
    5.13669 	   2.42906 	   4.03519
    5.21141 	   2.73101 	   4.14379
    5.23003 	   2.73904 	   4.14395
    5.24882 	   2.74667 	   4.14433
    5.26777 	   2.75388 	   4.14490
    5.28687 	   2.76067 	   4.14559
    5.30611 	   2.76705 	   4.14629
    5.32548 	   2.77301 	   4.14694
    5.34498 	   2.77857 	   4.14749
    5.36458 	   2.78377 	   4.14794
    5.38427 	   2.78862 	   4.14829
    5.40403 	   2.79315 	   4.14860
    5.42386 	   2.79741 	   4.14888
    5.44375 	   2.80139 	   4.14920
    5.46368 	   2.80510 	   4.14955
    5.48366 	   2.80854 	   4.14996
    5.50369 	   2.81170 	   4.15041
    5.52377 	   2.81455 	   4.15090
    5.19320 	   2.70766 	   4.13260
    5.19344 	   2.69298 	   4.12102
    5.19368 	   2.67856 	   4.10910
    5.19394 	   2.66437 	   4.09691
    5.19419 	   2.65035 	   4.08453
    5.19445 	   2.63647 	   4.07200
    5.19471 	   2.62279 	   4.05925
    5.19498 	   2.60933 	   4.04626
    5.19552 	   2.58331 	   4.02017
    5.19579 	   2.57071 	   4.00710
    5.19607 	   2.55863 	   3.99357
    5.19637 	   2.54775 	   3.97906
    5.19669 	   2.53857 	   3.96343
    5.19704 	   2.53189 	   3.94658
    5.19782 	   2.52780 	   3.90916
    5.19822 	   2.52929 	   3.88956
    5.19862 	   2.53219 	   3.87011
    5.19902 	   2.53513 	   3.85067
    5.19943 	   2.53689 	   3.83111
    5.19983 	   2.53618 	   3.81146
    5.20024 	   2.53322 	   3.79204
    5.20062 	   2.52732 	   3.77332
    5.20097 	   2.51753 	   3.75632
    5.53266 	   2.50074 	   3.75007
    5.51316 	   2.50074 	   3.74958
    5.49366 	   2.50074 	   3.74914
    5.47415 	   2.50074 	   3.74875
    5.45464 	   2.50074 	   3.74843
    5.43514 	   2.50074 	   3.74816
    5.41563 	   2.50074 	   3.74792
    5.39612 	   2.50074 	   3.74767
    5.37661 	   2.50074 	   3.74734
    5.35711 	   2.50074 	   3.74692
    5.33760 	   2.50074 	   3.74637
    5.31811 	   2.50074 	   3.74574
    5.29861 	   2.50074 	   3.74512
    5.27910 	   2.50074 	   3.74466
    5.25959 	   2.50074 	   3.74454
    5.24009 	   2.50074 	   3.74491
    5.22060 	   2.50074 	   3.74587
    5.54426 	   2.80903 	   4.13317
    5.54462 	   2.79930 	   4.11578
    5.54496 	   2.78799 	   4.09937
    5.54528 	   2.77570 	   4.08367
    5.54560 	   2.76270 	   4.06856
    5.54590 	   2.74921 	   4.05388
    5.54620 	   2.73538 	   4.03953
    5.54649 	   2.72128 	   4.02543
    5.54677 	   2.70691 	   4.01161
    5.54706 	   2.69265 	   3.99768
    5.54736 	   2.67884 	   3.98330
    5.54767 	   2.66552 	   3.96847
    5.54798 	   2.65261 	   3.95328
    5.54830 	   2.64016 	   3.93770
    5.54863 	   2.62815 	   3.92180
    5.54896 	   2.61628 	   3.90578
    5.54929 	   2.60440 	   3.88977
    5.54962 	   2.59256 	   3.87373
    5.54995 	   2.58071 	   3.85770
    5.55029 	   2.56915 	   3.84146
    5.55064 	   2.55842 	   3.82466
    5.55100 	   2.54931 	   3.80694
    5.55139 	   2.54218 	   3.78833
    5.55175 	   2.53324 	   3.77058
    5.55205 	   2.51936 	   3.75643
    5.19782 	   2.47273 	   3.90900
    5.19822 	   2.47135 	   3.88939
    5.19863 	   2.46857 	   3.86993
    5.19903 	   2.46574 	   3.85047
    5.19943 	   2.46410 	   3.83090
    5.19984 	   2.46492 	   3.81126
    5.20024 	   2.46799 	   3.79185
    5.20063 	   2.47400 	   3.77316
    5.20098 	   2.48388 	   3.75623
    5.19553 	   2.41659 	   4.01969
    5.19580 	   2.42926 	   4.00670
    5.19608 	   2.44142 	   3.99324
    5.19638 	   2.45239 	   3.97879
    5.19670 	   2.46166 	   3.96321
    5.19705 	   2.46843 	   3.94640
    5.19322 	   2.29160 	   4.13141
    5.19346 	   2.30634 	   4.11991
    5.19371 	   2.32083 	   4.10807
    5.19396 	   2.33508 	   4.09596
    5.19421 	   2.34918 	   4.08367
    5.19447 	   2.36314 	   4.07122
    5.19473 	   2.37689 	   4.05854
    5.19500 	   2.39042 	   4.04563
    5.21144 	   2.26818 	   4.14246
    5.23006 	   2.26015 	   4.14257
    5.24885 	   2.25253 	   4.14291
    5.26780 	   2.24532 	   4.14344
    5.28690 	   2.23852 	   4.14409
    5.30614 	   2.23214 	   4.14476
    5.32552 	   2.22618 	   4.14537
    5.34501 	   2.22062 	   4.14589
    5.36461 	   2.21542 	   4.14631
    5.38430 	   2.21057 	   4.14663
    5.40407 	   2.20604 	   4.14691
    5.42390 	   2.20179 	   4.14718
    5.44378 	   2.19780 	   4.14746
    5.46372 	   2.19409 	   4.14780
    5.48370 	   2.19065 	   4.14818
    5.50373 	   2.18749 	   4.14862
    5.52381 	   2.18464 	   4.14909
    5.54430 	   2.19026 	   4.13139
    5.54466 	   2.20009 	   4.11406
    5.54499 	   2.21150 	   4.09772
    5.54532 	   2.22388 	   4.08209
    5.54563 	   2.23696 	   4.06705
    5.54593 	   2.25054 	   4.05245
    5.54622 	   2.26446 	   4.03818
    5.54651 	   2.27864 	   4.02416
    5.54680 	   2.29308 	   4.01042
    5.54708 	   2.30742 	   3.99657
    5.54738 	   2.32131 	   3.98227
    5.54768 	   2.33472 	   3.96752
    5.54800 	   2.34772 	   3.95240
    5.54832 	   2.36025 	   3.93690
    5.54864 	   2.37236 	   3.92106
    5.54897 	   2.38432 	   3.90511
    5.54930 	   2.39629 	   3.88917
    5.54963 	   2.40822 	   3.87320
    5.54996 	   2.42016 	   3.85724
    5.55030 	   2.43182 	   3.84106
    5.55064 	   2.44265 	   3.82433
    5.55101 	   2.45185 	   3.80666
    5.55139 	   2.45909 	   3.78809
    5.55176 	   2.46813 	   3.77040
    5.55205 	   2.48209 	   3.75632
    5.19299 	   2.30284 	   4.14268
    5.19299 	   2.32908 	   4.14275
    5.19299 	   2.35531 	   4.14283
    5.19299 	   2.38154 	   4.14290
    5.19298 	   2.40778 	   4.14298
    5.19298 	   2.43401 	   4.14305
    5.19298 	   2.46024 	   4.14313
    5.19298 	   2.48648 	   4.14320
    5.19298 	   2.51271 	   4.14328
    5.19298 	   2.53895 	   4.14335
    5.19298 	   2.56518 	   4.14343
    5.19297 	   2.59141 	   4.14350
    5.19297 	   2.61765 	   4.14358
    5.19297 	   2.64388 	   4.14365
    5.19297 	   2.67011 	   4.14373
    5.19297 	   2.69635 	   4.14381
    5.54392 	   2.24561 	   4.14976
    5.54392 	   2.30911 	   4.14994
    5.54391 	   2.37260 	   4.15013
    5.54391 	   2.43610 	   4.15031
    5.54390 	   2.49960 	   4.15049
    5.54390 	   2.56309 	   4.15067
    5.54390 	   2.62659 	   4.15086
    5.54389 	   2.69008 	   4.15104
    5.54389 	   2.75358 	   4.15122
    6.24622 	   2.82633 	   4.14259
    6.24670 	   2.82639 	   4.11925
    6.24718 	   2.82646 	   4.09591
    6.24766 	   2.82653 	   4.07257
    6.24815 	   2.82660 	   4.04923
    6.24863 	   2.82637 	   4.02589
    6.24911 	   2.82471 	   4.00262
    6.24958 	   2.82078 	   3.97962
    6.25004 	   2.81391 	   3.95734
    6.25048 	   2.80367 	   3.93638
    6.25088 	   2.79098 	   3.91681
    6.25126 	   2.77676 	   3.89830
    6.25163 	   2.76150 	   3.88064
    6.25198 	   2.74567 	   3.86349
    6.25233 	   2.72958 	   3.84658
    6.25268 	   2.71327 	   3.82988
    6.25302 	   2.69669 	   3.81345
    6.25334 	   2.67949 	   3.79766
    6.25363 	   2.66080 	   3.78371
    6.25385 	   2.63993 	   3.77334
    6.25397 	   2.61736 	   3.76753
    6.25401 	   2.59412 	   3.76549
    6.25401 	   2.57078 	   3.76528
    6.25401 	   2.54743 	   3.76521
    6.25402 	   2.52409 	   3.76515
    5.58269 	   2.82100 	   4.15238
    5.62160 	   2.82374 	   4.15330
    5.66058 	   2.82541 	   4.15414
    5.69958 	   2.82622 	   4.15490
    5.73859 	   2.82643 	   4.15559
    5.77761 	   2.82626 	   4.15626
    5.81662 	   2.82595 	   4.15693
[...]
CELL_DATA 	      9403
SCALARS 	cell_scalars 	FLOAT 	         1
LOOKUP_TABLE 	DEFAULT
    -0.60575E+02
    -0.56512E+02
    -0.59662E+02
    -0.56873E+02
    -0.48887E+02
    -0.49019E+02
    -0.40176E+02
    -0.33188E+02
    -0.39516E+02
    -0.52293E+02
    -0.47642E+02
    -0.28189E+02
    -0.34893E+02
    -0.44638E+02
    -0.49572E+02
    -0.52208E+02
    -0.47540E+02
    -0.39352E+02
    -0.76663E+02
    -0.77074E+02
    -0.75360E+02
    -0.72803E+02
    -0.70800E+02
    -0.70491E+02
    -0.70865E+02
    -0.67950E+02
    -0.66418E+02
    -0.68937E+02
    -0.69159E+02
    -0.64454E+02
    -0.62064E+02
    -0.64323E+02
    -0.63244E+02
    -0.61050E+02
    -0.61365E+02
    -0.57865E+02
    -0.91905E+02
    -0.95018E+02
    -0.96239E+02
    -0.92465E+02
    -0.89648E+02
    -0.88007E+02
    -0.86067E+02
    -0.83786E+02
    -0.80745E+02
    -0.78406E+02
    -0.77549E+02
    -0.74623E+02
    -0.75755E+02
    -0.75996E+02
    -0.68984E+02
    -0.66265E+02
    -0.72318E+02
    -0.71433E+02
    -0.12352E+03
    -0.12323E+03
    -0.13166E+03
    -0.12345E+03
    -0.12424E+03
    -0.12561E+03
    -0.10814E+03
    -0.10862E+03
    -0.10253E+03
    -0.94979E+02
    -0.93471E+02
    -0.85853E+02
    -0.86041E+02
    -0.84104E+02
    -0.78181E+02
    -0.81737E+02
    -0.82990E+02
    -0.75799E+02
    -0.15007E+03
    -0.14971E+03
    -0.15322E+03
    -0.15157E+03
    -0.14860E+03
    -0.15265E+03
    -0.13072E+03
    -0.13309E+03
    -0.12305E+03
    -0.11453E+03
    -0.12271E+03
    -0.10997E+03
    -0.10240E+03
    -0.10899E+03
    -0.10096E+03
    -0.10093E+03
    -0.96207E+02
    -0.87146E+02
    -0.13715E+03
    -0.13104E+03
    -0.13929E+03
    -0.14098E+03
    -0.13604E+03
    -0.15656E+03
    -0.12362E+03
    -0.12947E+03
    -0.13225E+03
    -0.11091E+03
    -0.12006E+03
    -0.11617E+03
    -0.10378E+03
    -0.10702E+03
    -0.94972E+02
    -0.91483E+02
    -0.94817E+02
    -0.88864E+02
    -0.86703E+02
    -0.74427E+02
    -0.84676E+02
    -0.80747E+02
    -0.76296E+02
    -0.96155E+02
    -0.64108E+02
    -0.68509E+02
    -0.81255E+02
    -0.55067E+02
    -0.69433E+02
    -0.66639E+02
    -0.48068E+02
    -0.62342E+02
    -0.60468E+02
    -0.45388E+02
    -0.49594E+02
    -0.50110E+02
    -0.15029E+02
    -0.60248E+01
    -0.16729E+02
    -0.17870E+02
    -0.57781E+01
    -0.22397E+02
    -0.15213E+01
    -0.92885E+00
    -0.12942E+02
     0.15832E+02
     0.11435E+02
     0.88649E+01
     0.29394E+02
     0.17400E+02
     0.18406E+02
     0.35855E+02
     0.28774E+02
     0.26020E+02
     0.69209E+02
     0.85137E+02
     0.70858E+02
     0.65020E+02
     0.85563E+02
     0.67164E+02
     0.78314E+02
     0.84337E+02
     0.65350E+02
     0.86362E+02
     0.91728E+02
     0.83346E+02
     0.10330E+03
     0.10497E+03
     0.10397E+03
     0.12806E+03
     0.12561E+03
     0.11874E+03
     0.16258E+03
     0.17923E+03
     0.16897E+03
     0.16329E+03
     0.18742E+03
     0.16552E+03
     0.16462E+03
     0.18369E+03
     0.16751E+03
     0.17306E+03
     0.18484E+03
     0.16977E+03
     0.18198E+03
     0.19649E+03
     0.19333E+03
     0.21468E+03
     0.21982E+03
     0.21458E+03
     0.26480E+03
     0.27514E+03
     0.27319E+03
     0.26161E+03
     0.27906E+03
     0.25993E+03
     0.25245E+03
     0.27372E+03
     0.26387E+03
     0.26581E+03
     0.28432E+03
     0.27694E+03
     0.28293E+03
     0.30526E+03
     0.30503E+03
     0.31805E+03
     0.32740E+03
     0.31837E+03
     0.38288E+03
     0.39664E+03
     0.39685E+03
     0.38000E+03
     0.39335E+03
     0.37629E+03
     0.36562E+03
     0.38635E+03
     0.37736E+03
     0.37644E+03
     0.39551E+03
     0.38911E+03
     0.39450E+03
     0.41410E+03
     0.41835E+03
     0.43668E+03
     0.44449E+03
     0.43608E+03
     0.51295E+03
     0.53007E+03
     0.51148E+03
     0.51116E+03
     0.52576E+03
     0.50026E+03
     0.49834E+03
     0.51864E+03
     0.50425E+03
     0.50760E+03
     0.52732E+03
     0.52257E+03
     0.52879E+03
     0.54128E+03
     0.54312E+03
     0.55856E+03
     0.56749E+03
     0.56781E+03
     0.66618E+03
     0.67646E+03
     0.65738E+03
     0.66427E+03
     0.65974E+03
     0.64437E+03
     0.65210E+03
     0.65114E+03
     0.64742E+03
     0.66225E+03
     0.66042E+03
     0.65763E+03
     0.67497E+03
     0.67539E+03
     0.67235E+03
     0.69081E+03
     0.69544E+03
     0.69884E+03
     0.84094E+03
     0.83340E+03
     0.82734E+03
     0.83113E+03
     0.81441E+03
     0.80897E+03
     0.81576E+03
     0.80919E+03
     0.81142E+03
     0.81308E+03
     0.80845E+03
     0.82050E+03
     0.81880E+03
     0.81191E+03
     0.82907E+03
     0.83063E+03
     0.82288E+03
     0.83515E+03
     0.10088E+04
     0.10199E+04
     0.10191E+04
     0.98807E+03
     0.98301E+03
     0.99691E+03
     0.98564E+03
     0.96823E+03
     0.97959E+03
     0.97833E+03
     0.96616E+03
     0.97529E+03
     0.97461E+03
     0.97508E+03
     0.97541E+03
     0.96952E+03
     0.97841E+03
     0.97360E+03
     0.11908E+04
     0.12120E+04
     0.12144E+04
     0.11585E+04
     0.11495E+04
     0.11648E+04
     0.11696E+04
     0.11455E+04
     0.11361E+04
     0.11419E+04
     0.11363E+04
     0.11376E+04
     0.11287E+04
     0.11284E+04
     0.11299E+04
     0.11252E+04
     0.11212E+04
     0.11097E+04
     0.13885E+04
     0.14051E+04
     0.14143E+04
     0.13430E+04
     0.13142E+04
     0.13348E+04
     0.13411E+04
     0.13268E+04
     0.13109E+04
     0.13031E+04
     0.13008E+04
     0.13043E+04
     0.12837E+04
     0.12830E+04
     0.12805E+04
     0.12673E+04
     0.12692E+04
     0.12627E+04
     0.15775E+04
     0.15991E+04
     0.16095E+04
     0.15231E+04
     0.14833E+04
     0.15068E+04
     0.15129E+04
     0.14988E+04
     0.14861E+04
     0.14658E+04
     0.14689E+04
     0.14654E+04
     0.14484E+04
     0.14467E+04
     0.14314E+04
     0.14187E+04
     0.14222E+04
     0.14150E+04
     0.17587E+04
     0.17810E+04
     0.17871E+04
     0.16800E+04
     0.16596E+04
     0.16871E+04
     0.16862E+04
     0.16687E+04
     0.16539E+04
     0.16340E+04
     0.16283E+04
     0.16110E+04
     0.16092E+04
     0.16173E+04
     0.15982E+04
     0.15710E+04
     0.15603E+04
     0.15593E+04
     0.19314E+04
     0.19460E+04
     0.19328E+04
     0.18459E+04
     0.18489E+04
     0.18682E+04
     0.18617E+04
     0.18475E+04
     0.18309E+04
     0.18118E+04
     0.17966E+04
     0.17772E+04
     0.17665E+04
     0.17641E+04
     0.17509E+04
     0.17293E+04
     0.17187E+04
     0.17188E+04
     0.20937E+04
     0.20944E+04
     0.20681E+04
     0.20191E+04
     0.20257E+04
     0.20386E+04
     0.20333E+04
     0.20241E+04
     0.20118E+04
     0.19964E+04
     0.19821E+04
     0.19663E+04
     0.19520E+04
     0.19399E+04
     0.19226E+04
     0.19038E+04
     0.18900E+04
     0.18794E+04
     0.22545E+04
     0.22491E+04
     0.22271E+04
     0.21995E+04
     0.21932E+04
     0.21933E+04
     0.21845E+04
     0.21740E+04
     0.21628E+04
     0.21508E+04
     0.21394E+04
     0.21275E+04
     0.21157E+04
     0.21057E+04
     0.20947E+04
     0.20822E+04
     0.20698E+04
     0.20579E+04
     0.24215E+04
     0.24186E+04
     0.24021E+04
     0.23833E+04
     0.23683E+04
     0.23574E+04
     0.23426E+04
     0.23282E+04
     0.23157E+04
     0.23046E+04
     0.22938E+04
     0.22829E+04
     0.22707E+04
     0.22597E+04
     0.22497E+04
     0.22390E+04
     0.22273E+04
     0.22155E+04
     0.25590E+04
     0.25576E+04
     0.25480E+04
     0.25328E+04
     0.25186E+04
     0.25057E+04
     0.24909E+04
     0.24771E+04
     0.24654E+04
     0.24554E+04
     0.24437E+04
     0.24313E+04
     0.24185E+04
     0.24057E+04
     0.23936E+04
     0.23824E+04
     0.23694E+04
     0.23559E+04
     0.26257E+04
     0.26295E+04
     0.26321E+04
     0.26173E+04
     0.26053E+04
     0.25932E+04
     0.25812E+04
     0.25702E+04
     0.25611E+04
     0.25554E+04
     0.25432E+04
     0.25293E+04
     0.25184E+04
     0.25072E+04
     0.24972E+04
     0.24899E+04
     0.24787E+04
     0.24650E+04
    -0.36004E+02
    -0.31594E+02
    -0.47869E+02
    -0.53912E+02
    -0.53664E+02
    -0.48628E+02
    -0.38922E+02
    -0.51647E+02
    -0.58549E+02
    -0.54159E+02
    -0.48379E+02
    -0.57107E+02
    -0.61333E+02
    -0.60231E+02
    -0.61400E+02
    -0.65100E+02
    -0.64607E+02
    -0.66649E+02
    -0.61371E+02
    -0.59314E+02
    -0.58748E+02
    -0.64057E+02
    -0.68138E+02
    -0.66548E+02
    -0.63271E+02
    -0.68235E+02
    -0.72674E+02
    -0.69994E+02
    -0.71462E+02
    -0.73873E+02
    -0.73676E+02
    -0.74326E+02
    -0.75707E+02
    -0.77831E+02
    -0.79342E+02
    -0.79240E+02
    -0.70421E+02
    -0.70733E+02
    -0.64411E+02
    -0.69452E+02
    -0.77201E+02
    -0.78204E+02
    -0.73456E+02
    -0.79895E+02
    -0.85353E+02
    -0.85788E+02
    -0.89519E+02
    -0.91576E+02
    -0.93636E+02
    -0.95857E+02
    -0.96887E+02
    -0.10210E+03
    -0.10154E+03
    -0.97663E+02
    -0.75417E+02
    -0.83508E+02
    -0.82139E+02
    -0.79769E+02
    -0.88120E+02
    -0.95017E+02
    -0.99801E+02
    -0.10308E+03
    -0.10255E+03
    -0.11047E+03
    -0.11806E+03
    -0.11354E+03
    -0.12605E+03
    -0.13239E+03
    -0.12596E+03
    -0.13740E+03
    -0.13388E+03
    -0.12819E+03
    -0.87492E+02
    -0.97192E+02
    -0.10023E+03
    -0.99834E+02
    -0.11457E+03
    -0.11044E+03
    -0.11984E+03
    -0.13501E+03
    -0.12217E+03
    -0.12746E+03
    -0.14317E+03
    -0.13346E+03
    -0.14814E+03
    -0.15197E+03
    -0.14804E+03
    -0.15774E+03
    -0.15806E+03
    -0.15209E+03
    -0.75795E+02
    -0.89846E+02
    -0.86941E+02
    -0.90769E+02
    -0.10943E+03
    -0.10333E+03
    -0.11431E+03
    -0.12928E+03
    -0.11404E+03
    -0.12673E+03
    -0.13776E+03
    -0.12464E+03
    -0.15260E+03
    -0.13884E+03
    -0.13900E+03
    -0.14730E+03
    -0.13615E+03
    -0.13295E+03
    -0.29821E+02
    -0.43189E+02
    -0.39627E+02
    -0.56386E+02
    -0.65301E+02
    -0.47914E+02
    -0.62460E+02
    -0.78475E+02
    -0.57245E+02
    -0.72596E+02
    -0.75187E+02
    -0.63356E+02
    -0.92129E+02
    -0.76315E+02
    -0.75472E+02
    -0.82175E+02
    -0.68260E+02
    -0.77016E+02
     0.41394E+02
     0.33396E+02
     0.41312E+02
     0.27180E+02
     0.17268E+02
     0.32945E+02
     0.15422E+02
     0.32548E+01
     0.16021E+02
    -0.51838E+01
    -0.10795E+01
     0.47220E+01
    -0.19672E+02
    -0.56996E+01
    -0.94747E+01
    -0.80378E+01
     0.40044E+01
    -0.47557E+01
     0.13113E+03
     0.12799E+03
     0.13347E+03
     0.11357E+03
     0.10964E+03
     0.11232E+03
     0.89511E+02
     0.88025E+02
     0.88905E+02
     0.66817E+02
     0.83437E+02
     0.84554E+02
     0.66837E+02
     0.84679E+02
     0.73466E+02
     0.76614E+02
     0.90586E+02
     0.74271E+02
     0.22627E+03
     0.22537E+03
     0.22157E+03
     0.19875E+03
     0.19927E+03
     0.18966E+03
     0.17224E+03
     0.18535E+03
     0.17589E+03
     0.16361E+03
     0.18145E+03
     0.16980E+03
     0.16696E+03
     0.19117E+03
     0.17034E+03
     0.16996E+03
     0.18366E+03
     0.16592E+03
     0.32621E+03
     0.33275E+03
     0.32467E+03
     0.30417E+03
     0.30646E+03
     0.29090E+03
     0.28297E+03
     0.28997E+03
     0.26994E+03
     0.26352E+03
     0.27553E+03
     0.25687E+03
     0.26108E+03
     0.28364E+03
     0.26457E+03
     0.26957E+03
     0.27699E+03
     0.26551E+03
     0.44159E+03
     0.44861E+03
     0.44204E+03
     0.41805E+03
     0.41627E+03
     0.40386E+03
     0.39820E+03
     0.40184E+03
     0.38041E+03
     0.37919E+03
     0.39174E+03
     0.36937E+03
     0.37503E+03
     0.39436E+03
     0.37774E+03
     0.39118E+03
     0.39832E+03
     0.38305E+03
     0.57195E+03
     0.57013E+03
     0.56295E+03
     0.54430E+03
     0.54296E+03
     0.53202E+03
     0.52561E+03
     0.52965E+03
     0.50912E+03
     0.50752E+03
     0.52359E+03
     0.50188E+03
     0.50079E+03
     0.52624E+03
     0.51136E+03
     0.50994E+03
     0.52995E+03
     0.51260E+03
     0.70312E+03
     0.69793E+03
     0.69463E+03
     0.67893E+03
     0.68056E+03
     0.67834E+03
     0.66033E+03
     0.66168E+03
     0.66310E+03
     0.65048E+03
     0.65505E+03
     0.65552E+03
     0.64673E+03
     0.66028E+03
     0.66498E+03
     0.65595E+03
     0.67233E+03
     0.66412E+03
     0.83861E+03
     0.82764E+03
     0.83393E+03
     0.83181E+03
     0.81641E+03
     0.82336E+03
     0.82376E+03
     0.81079E+03
     0.81446E+03
     0.81400E+03
     0.81148E+03
     0.81766E+03
     0.81260E+03
     0.81525E+03
     0.82869E+03
     0.82462E+03
     0.82849E+03
     0.83850E+03
     0.97680E+03
     0.98119E+03
     0.97235E+03
     0.97670E+03
     0.97686E+03
     0.97692E+03
     0.97753E+03
     0.96975E+03
     0.98084E+03
     0.98155E+03
     0.97132E+03
     0.98888E+03
     0.99780E+03
     0.98247E+03
     0.98873E+03
     0.10198E+04
     0.10157E+04
     0.10060E+04
     0.11143E+04
     0.11225E+04
     0.11253E+04
     0.11299E+04
     0.11289E+04
     0.11303E+04
     0.11392E+04
     0.11381E+04
     0.11420E+04
     0.11388E+04
     0.11503E+04
     0.11708E+04
     0.11639E+04
     0.11465E+04
     0.11691E+04
     0.12131E+04
     0.12077E+04
     0.11880E+04
     0.12666E+04
     0.12672E+04
     0.12632E+04
     0.12798E+04
     0.12857E+04
     0.12877E+04
     0.13051E+04
     0.13031E+04
     0.13011E+04
     0.13118E+04
     0.13297E+04
     0.13384E+04
     0.13237E+04
     0.13121E+04
     0.13628E+04
     0.14114E+04
     0.13995E+04
     0.13827E+04
     0.14183E+04
     0.14192E+04
     0.14150E+04
     0.14316E+04
     0.14464E+04
     0.14498E+04
     0.14667E+04
     0.14622E+04
     0.14611E+04
     0.14859E+04
     0.15016E+04
     0.15115E+04
     0.14962E+04
     0.14823E+04
     0.15547E+04
     0.16018E+04
     0.15908E+04
     0.15708E+04
     0.15607E+04
     0.15602E+04
     0.15730E+04
     0.16022E+04
     0.16136E+04
     0.16044E+04
     0.16136E+04
     0.16253E+04
     0.16324E+04
     0.16546E+04
     0.16720E+04
     0.16871E+04
     0.16767E+04
     0.16593E+04
     0.17191E+04
     0.17822E+04
     0.17711E+04
     0.17525E+04
     0.17178E+04
     0.17183E+04
     0.17328E+04
     0.17546E+04
     0.17611E+04
     0.17638E+04
     0.17794E+04
     0.17973E+04
     0.18121E+04
     0.18304E+04
     0.18484E+04
     0.18621E+04
     0.18564E+04
     0.18393E+04
     0.18697E+04
     0.19380E+04
     0.19372E+04
     0.19253E+04
     0.18806E+04
     0.18930E+04
     0.19102E+04
     0.19313E+04
     0.19448E+04
     0.19542E+04
     0.19680E+04
     0.19822E+04
     0.19936E+04
     0.20062E+04
     0.20199E+04
     0.20271E+04
     0.20165E+04
     0.20089E+04
     0.20345E+04
     0.20809E+04
     0.20930E+04
     0.20909E+04
     0.20565E+04
     0.20673E+04
     0.20787E+04
     0.20914E+04
     0.21040E+04
     0.21160E+04
     0.21279E+04
     0.21396E+04
     0.21499E+04
     0.21601E+04
     0.21707E+04
     0.21788E+04
     0.21802E+04
     0.21899E+04
     0.22144E+04
     0.22397E+04
     0.22534E+04
     0.22560E+04
     0.22159E+04
     0.22274E+04
     0.22377E+04
     0.22487E+04
     0.22604E+04
     0.22726E+04
     0.22849E+04
     0.22972E+04
     0.23088E+04
     0.23195E+04
     0.23313E+04
     0.23447E+04
     0.23588E+04
     0.23764E+04
     0.23979E+04
     0.24146E+04
     0.24244E+04
     0.24239E+04
     0.23596E+04
     0.23736E+04
     0.23861E+04
     0.23980E+04
     0.24102E+04
     0.24218E+04
     0.24337E+04
     0.24471E+04
     0.24590E+04
     0.24686E+04
     0.24800E+04
     0.24936E+04
     0.25079E+04
     0.25232E+04
     0.25392E+04
     0.25537E+04
     0.25591E+04
     0.25577E+04
     0.24643E+04
     0.24784E+04
     0.24899E+04
     0.24979E+04
     0.25079E+04
     0.25175E+04
     0.25280E+04
     0.25426E+04
     0.25544E+04
     0.25597E+04
     0.25687E+04
     0.25795E+04
     0.25917E+04
     0.26043E+04
     0.26165E+04
     0.26313E+04
     0.26280E+04
     0.26242E+04
    -0.79176E+01
    -0.86733E+01
    -0.64046E+01
    -0.23673E+02
    -0.12512E+02
    -0.31241E+02
    -0.58646E+02
    -0.58230E+02
    -0.57153E+02
    -0.55295E+02
    -0.55098E+02
    -0.56057E+02
    -0.54082E+02
    -0.51011E+02
    -0.51217E+02
    -0.49090E+02
    -0.48429E+02
    -0.42899E+02
    -0.44009E+02
    -0.51058E+02
    -0.49154E+02
    -0.43865E+02
    -0.47755E+02
    -0.48509E+02
    -0.33329E+02
    -0.32422E+02
    -0.46924E+02
    -0.53048E+02
    -0.51486E+02
    -0.46706E+02
    -0.28458E+02
    -0.34414E+02
    -0.26481E+02
    -0.20458E+02
    -0.21040E+02
    -0.35561E+02
    -0.19177E+02
    -0.31334E+02
    -0.14868E+02
    -0.22513E+02
    -0.79502E+01
    -0.10541E+02
    -0.30659E+01
    -0.10962E+01
    -0.14285E+02
    -0.35097E+02
    -0.32852E+02
    -0.39210E+02
    -0.19882E+02
    -0.19128E+02
    -0.50036E+01
    -0.10732E+02
    -0.13661E+02
    -0.31323E+02
    -0.27368E+02
    -0.39795E+02
    -0.29445E+02
    -0.36059E+02
    -0.24731E+02
    -0.28425E+02
    -0.18125E+02
    -0.14435E+02
    -0.23545E+02
    -0.39931E+02
    -0.41291E+02
    -0.47573E+02
    -0.37987E+02
    -0.40283E+02
    -0.30508E+02
    -0.31747E+02
    -0.54038E+02
    -0.50033E+02
    -0.45003E+02
    -0.42391E+02
    -0.39768E+02
    -0.36798E+02
    -0.33796E+02
    -0.30993E+02
    -0.28549E+02
    -0.26061E+02
    -0.24389E+02
    -0.23224E+02
    -0.22264E+02
    -0.21036E+02
    -0.20450E+02
    -0.20760E+02
    -0.20974E+02
    -0.21936E+02
    -0.22158E+02
    -0.23140E+02
    -0.24160E+02
    -0.26517E+02
    -0.28061E+02
    -0.30667E+02
    -0.32501E+02
    -0.35457E+02
    -0.37872E+02
    -0.41139E+02
    -0.43387E+02
    -0.47060E+02
    -0.33712E+02
    -0.14361E+02
    -0.49083E+02
    -0.52018E+02
    -0.55173E+02
    -0.52514E+02
    -0.51091E+02
    -0.51408E+02
    -0.49298E+02
    -0.46778E+02
    -0.47365E+02
    -0.44676E+02
    -0.43578E+02
    -0.46102E+02
    -0.44789E+02
    -0.49140E+02
    -0.47446E+02
    -0.46368E+02
    -0.46006E+02
    -0.44117E+02
    -0.43519E+02
    -0.36755E+02
    -0.39738E+02
    -0.28391E+02
    -0.32749E+02
    -0.26451E+02
    -0.28145E+02
    -0.11411E+02
    -0.13852E+02
    -0.18883E+02
    -0.15985E+02
    -0.21982E+02
    -0.19617E+02
    -0.22917E+02
    -0.21990E+02
    -0.23767E+02
    -0.23734E+02
    -0.28002E+02
    -0.25698E+02
    -0.32536E+02
    -0.29950E+02
    -0.32667E+02
    -0.31505E+02
    -0.32679E+02
    -0.32897E+02
    -0.73001E+01
    -0.83040E+01
    -0.93718E+01
    -0.78561E+01
    -0.10308E+02
    -0.97121E+01
    -0.11467E+02
    -0.11932E+02
    -0.13258E+02
    -0.13972E+02
    -0.18128E+02
    -0.16466E+02
    -0.21219E+02
    -0.19524E+02
    -0.17923E+02
    -0.19930E+02
    -0.15933E+02
    -0.20550E+02
    -0.41199E+02
    -0.42651E+02
    -0.36476E+02
    -0.37874E+02
    -0.31328E+02
    -0.33233E+02
    -0.27391E+02
    -0.28541E+02
    -0.23922E+02
    -0.25185E+02
    -0.22408E+02
    -0.22744E+02
    -0.21059E+02
    -0.21676E+02
    -0.21213E+02
    -0.21056E+02
    -0.22021E+02
    -0.21109E+02
    -0.24312E+02
    -0.22780E+02
    -0.27914E+02
    -0.25560E+02
    -0.32976E+02
    -0.29613E+02
    -0.38650E+02
    -0.35143E+02
    -0.44106E+02
    -0.40584E+02
    -0.46687E+02
    -0.21927E+02
    -0.24308E+02
    -0.38120E+02
    -0.37095E+02
    -0.57083E+01
    -0.49574E+01
    -0.10990E+02
    -0.83253E+01
    -0.45435E+02
    -0.44038E+02
    -0.15511E+02
    -0.13715E+02
    -0.17594E+02
    -0.82027E+01
    -0.68207E+01
    -0.92867E+01
    -0.43843E+02
    -0.42248E+02
    -0.41642E+02
    -0.40414E+02
    -0.39861E+02
    -0.38315E+02
    -0.39492E+02
    -0.37133E+02
    -0.40023E+02
    -0.41499E+02
    -0.38979E+02
    -0.38396E+02
    -0.35260E+02
    -0.35233E+02
    -0.31170E+02
    -0.31675E+02
    -0.27975E+02
    -0.28390E+02
    -0.11413E+02
    -0.98400E+01
    -0.13778E+02
    -0.12116E+02
    -0.16964E+02
    -0.14985E+02
    -0.16847E+02
    -0.20379E+02
    -0.18125E+02