# vtk DataFile Version 3.14.1
BMesh by KP LIAO
ASCII
DATASET UNSTRUCTURED_GRID
POINTS 	      8150 	FLOAT
    5.19351 	   2.72213 	   4.17651
    5.19519 	   2.59595 	   4.06531
    5.19678 	   2.52868 	   3.96079
    5.19952 	   2.50154 	   3.77932
    5.55054 	   2.50156 	   3.78053
    5.54446 	   2.81662 	   4.18240
    5.19678 	   2.47221 	   3.96045
    5.19521 	   2.40368 	   4.06415
    5.19355 	   2.27617 	   4.17382
    5.54452 	   2.18167 	   4.17856
    6.24638 	   2.82581 	   4.19308
    6.25246 	   2.50156 	   3.79116
    6.24644 	   2.17249 	   4.18913
    7.89028 	   2.50156 	   3.81596
    7.88425 	   2.17249 	   4.21393
    7.88419 	   2.82581 	   4.21787
    9.28803 	   2.82581 	   4.23913
    9.29412 	   2.50156 	   3.83721
    9.28809 	   2.17249 	   4.23519
    9.65556 	   2.50109 	   3.92069
    9.65560 	   2.49444 	   3.91804
    9.58512 	   2.49431 	   3.93804
    9.60217 	   2.50068 	   3.98856
    9.58436 	   2.48894 	   3.98822
    9.55812 	   2.48429 	   3.98109
    9.58627 	   2.50144 	   3.86244
    9.55983 	   2.50148 	   3.85457
    9.52606 	   2.47838 	   3.97498
    9.52798 	   2.50152 	   3.84791
    9.58511 	   2.50765 	   3.93812
    9.65560 	   2.50777 	   3.91812
    9.58435 	   2.51241 	   3.98836
    9.55812 	   2.51715 	   3.98129
    9.52605 	   2.52312 	   3.97525
    9.83064 	   2.82581 	   4.24734
    9.63899 	   2.82581 	   4.24444
    9.83365 	   2.50034 	   4.04807
    9.64256 	   2.50056 	   4.00892
    9.52200 	   2.82581 	   4.24267
    9.63905 	   2.17249 	   4.24050
    9.83069 	   2.17249 	   4.24340
    9.52206 	   2.17249 	   4.23873
    9.42614 	   2.17249 	   4.23728
    9.42608 	   2.82581 	   4.24122
    9.83067 	   2.49915 	   4.24537
    9.65592 	   2.50124 	   3.89669
    9.43217 	   2.50156 	   3.83930
    5.13826 	   2.51738 	   3.96108
    5.13917 	   2.52741 	   3.90141
    5.14091 	   2.50149 	   3.78610
    5.13917 	   2.47418 	   3.90109
    5.13826 	   2.48349 	   3.96087
    5.08058 	   2.47800 	   3.90663
    5.07998 	   2.49134 	   3.94670
    5.07977 	   2.50044 	   3.96009
    5.07997 	   2.50969 	   3.94681
    5.08058 	   2.52352 	   3.90690
    5.06955 	   2.50052 	   3.94660
    5.02208 	   2.52136 	   3.90600
    5.02148 	   2.50052 	   3.94587
    5.02209 	   2.48016 	   3.90575
    5.08219 	   2.50140 	   3.80018
    5.02331 	   2.50125 	   3.82511
    4.94469 	   2.50076 	   3.90471
    5.13501 	   2.69152 	   4.17544
    5.13505 	   2.30678 	   4.17312
    4.93597 	   2.49915 	   4.17127
    5.13664 	   2.57063 	   4.06805
    5.02462 	   2.49979 	   4.06593
    5.13665 	   2.42895 	   4.06720
    5.21195 	   2.73057 	   4.17635
    5.23058 	   2.73860 	   4.17642
    5.24937 	   2.74622 	   4.17673
    5.26832 	   2.75343 	   4.17722
    5.28742 	   2.76022 	   4.17782
    5.30666 	   2.76660 	   4.17844
    5.32604 	   2.77256 	   4.17900
    5.34554 	   2.77812 	   4.17946
    5.36514 	   2.78331 	   4.17981
    5.38483 	   2.78817 	   4.18008
    5.40460 	   2.79270 	   4.18028
    5.42443 	   2.79695 	   4.18048
    5.44431 	   2.80094 	   4.18069
    5.46425 	   2.80465 	   4.18095
    5.48423 	   2.80809 	   4.18126
    5.50426 	   2.81125 	   4.18161
    5.52434 	   2.81410 	   4.18199
    5.19368 	   2.70725 	   4.16519
    5.19386 	   2.69260 	   4.15355
    5.19404 	   2.67822 	   4.14158
    5.19422 	   2.66407 	   4.12935
    5.19441 	   2.65009 	   4.11693
    5.19460 	   2.63625 	   4.10435
    5.19480 	   2.62260 	   4.09155
    5.19499 	   2.60919 	   4.07852
    5.19539 	   2.58325 	   4.05235
    5.19559 	   2.57070 	   4.03924
    5.19579 	   2.55866 	   4.02567
    5.19601 	   2.54782 	   4.01112
    5.19625 	   2.53869 	   3.99546
    5.19651 	   2.53207 	   3.97859
    5.19707 	   2.52810 	   3.94115
    5.19737 	   2.52965 	   3.92155
    5.19766 	   2.53260 	   3.90211
    5.19796 	   2.53561 	   3.88268
    5.19825 	   2.53743 	   3.86312
    5.19855 	   2.53678 	   3.84347
    5.19885 	   2.53388 	   3.82404
    5.19913 	   2.52804 	   3.80529
    5.19939 	   2.51831 	   3.78827
    5.53104 	   2.50156 	   3.78013
    5.51153 	   2.50156 	   3.77975
    5.49203 	   2.50156 	   3.77942
    5.47252 	   2.50156 	   3.77914
    5.45301 	   2.50156 	   3.77892
    5.43350 	   2.50156 	   3.77876
    5.41399 	   2.50156 	   3.77863
    5.39448 	   2.50156 	   3.77848
    5.37497 	   2.50156 	   3.77827
    5.35547 	   2.50156 	   3.77795
    5.33596 	   2.50156 	   3.77751
    5.31646 	   2.50156 	   3.77699
    5.29696 	   2.50156 	   3.77647
    5.27745 	   2.50157 	   3.77612
    5.25794 	   2.50156 	   3.77611
    5.23844 	   2.50156 	   3.77659
    5.21896 	   2.50155 	   3.77765
    5.54474 	   2.80864 	   4.16413
    5.54500 	   2.79896 	   4.14671
    5.54525 	   2.78770 	   4.13027
    5.54549 	   2.77546 	   4.11453
    5.54572 	   2.76251 	   4.09937
    5.54594 	   2.74907 	   4.08465
    5.54616 	   2.73528 	   4.07025
    5.54637 	   2.72122 	   4.05611
    5.54658 	   2.70690 	   4.04224
    5.54679 	   2.69269 	   4.02826
    5.54701 	   2.67893 	   4.01384
    5.54724 	   2.66565 	   3.99896
    5.54747 	   2.65278 	   3.98373
    5.54770 	   2.64039 	   3.96812
    5.54795 	   2.62843 	   3.95217
    5.54819 	   2.61661 	   3.93611
    5.54843 	   2.60478 	   3.92006
    5.54868 	   2.59299 	   3.90399
    5.54892 	   2.58119 	   3.88791
    5.54917 	   2.56968 	   3.87164
    5.54942 	   2.55900 	   3.85481
    5.54969 	   2.54995 	   3.83705
    5.54997 	   2.54288 	   3.81842
    5.55024 	   2.53400 	   3.80064
    5.55046 	   2.52016 	   3.78644
    5.19708 	   2.47303 	   3.94082
    5.19737 	   2.47171 	   3.92120
    5.19767 	   2.46899 	   3.90173
    5.19796 	   2.46623 	   3.88226
    5.19826 	   2.46464 	   3.86268
    5.19856 	   2.46553 	   3.84304
    5.19885 	   2.46866 	   3.82364
    5.19913 	   2.47473 	   3.80497
    5.19939 	   2.48466 	   3.78806
    5.19540 	   2.41654 	   4.05134
    5.19560 	   2.42925 	   4.03839
    5.19580 	   2.44145 	   4.02496
    5.19602 	   2.45246 	   4.01055
    5.19626 	   2.46178 	   3.99499
    5.19651 	   2.46860 	   3.97821
    5.19372 	   2.29119 	   4.16267
    5.19389 	   2.30597 	   4.15122
    5.19407 	   2.32049 	   4.13942
    5.19425 	   2.33479 	   4.12736
    5.19444 	   2.34892 	   4.11511
    5.19463 	   2.36292 	   4.10270
    5.19482 	   2.37671 	   4.09007
    5.19501 	   2.39028 	   4.07720
    5.21200 	   2.26774 	   4.17355
    5.23062 	   2.25971 	   4.17353
    5.24941 	   2.25209 	   4.17375
    5.26836 	   2.24487 	   4.17415
    5.28746 	   2.23808 	   4.17467
    5.30671 	   2.23170 	   4.17521
    5.32609 	   2.22574 	   4.17570
    5.34559 	   2.22017 	   4.17610
    5.36519 	   2.21498 	   4.17638
    5.38488 	   2.21013 	   4.17659
    5.40465 	   2.20559 	   4.17674
    5.42448 	   2.20134 	   4.17688
    5.44437 	   2.19736 	   4.17705
    5.46430 	   2.19365 	   4.17726
    5.48429 	   2.19021 	   4.17753
    5.50432 	   2.18705 	   4.17784
    5.52440 	   2.18420 	   4.17819
    5.54479 	   2.18988 	   4.16040
    5.54506 	   2.19976 	   4.14310
    5.54530 	   2.21122 	   4.12679
    5.54554 	   2.22365 	   4.11120
    5.54577 	   2.23678 	   4.09620
    5.54599 	   2.25040 	   4.08164
    5.54620 	   2.26437 	   4.06741
    5.54641 	   2.27859 	   4.05344
    5.54662 	   2.29308 	   4.03974
    5.54683 	   2.30746 	   4.02594
    5.54705 	   2.32140 	   4.01168
    5.54727 	   2.33485 	   3.99697
    5.54750 	   2.34790 	   3.98189
    5.54773 	   2.36048 	   3.96643
    5.54797 	   2.37264 	   3.95063
    5.54821 	   2.38465 	   3.93471
    5.54845 	   2.39667 	   3.91880
    5.54869 	   2.40866 	   3.90287
    5.54893 	   2.42065 	   3.88694
    5.54918 	   2.43235 	   3.87081
    5.54943 	   2.44323 	   3.85411
    5.54970 	   2.45250 	   3.83646
    5.54998 	   2.45979 	   3.81792
    5.55025 	   2.46889 	   3.80025
    5.55046 	   2.48289 	   3.78621
    5.19355 	   2.30240 	   4.17398
    5.19355 	   2.32863 	   4.17414
    5.19354 	   2.35487 	   4.17429
    5.19354 	   2.38110 	   4.17445
    5.19354 	   2.40733 	   4.17461
    5.19354 	   2.43357 	   4.17477
    5.19353 	   2.45980 	   4.17493
    5.19353 	   2.48603 	   4.17509
    5.19353 	   2.51227 	   4.17524
    5.19353 	   2.53850 	   4.17540
    5.19352 	   2.56473 	   4.17556
    5.19352 	   2.59097 	   4.17572
    5.19352 	   2.61720 	   4.17588
    5.19352 	   2.64343 	   4.17604
    5.19351 	   2.66967 	   4.17619
    5.19351 	   2.69590 	   4.17635
    5.54451 	   2.24517 	   4.17895
    5.54451 	   2.30866 	   4.17933
    5.54450 	   2.37216 	   4.17971
    5.54450 	   2.43565 	   4.18010
    5.54449 	   2.49915 	   4.18048
    5.54448 	   2.56264 	   4.18086
    5.54448 	   2.62614 	   4.18125
    5.54447 	   2.68963 	   4.18163
    5.54447 	   2.75313 	   4.18201
    6.24673 	   2.82595 	   4.16974
    6.24709 	   2.82609 	   4.14639
    6.24744 	   2.82623 	   4.12305
    6.24779 	   2.82637 	   4.09971
    6.24815 	   2.82651 	   4.07637
    6.24850 	   2.82636 	   4.05303
    6.24885 	   2.82478 	   4.02974
    6.24920 	   2.82092 	   4.00674
    6.24954 	   2.81411 	   3.98443
    6.24986 	   2.80395 	   3.96344
    6.25015 	   2.79132 	   3.94382
    6.25043 	   2.77716 	   3.92527
    6.25070 	   2.76195 	   3.90756
    6.25096 	   2.74618 	   3.89035
    6.25122 	   2.73014 	   3.87339
    6.25147 	   2.71388 	   3.85664
    6.25172 	   2.69736 	   3.84015
    6.25196 	   2.68021 	   3.82431
    6.25217 	   2.66156 	   3.81030
    6.25233 	   2.64073 	   3.79986
    6.25242 	   2.61817 	   3.79398
    6.25245 	   2.59494 	   3.79187
    6.25246 	   2.57160 	   3.79158
    6.25246 	   2.54825 	   3.79144
    6.25246 	   2.52491 	   3.79130
    5.58327 	   2.82055 	   4.18317
    5.62219 	   2.82329 	   4.18389
    5.66117 	   2.82496 	   4.18452
    5.70017 	   2.82577 	   4.18506
    5.73919 	   2.82597 	   4.18554
    5.77820 	   2.82581 	   4.18599
    5.81722 	   2.82550 	   4.18645
[...]
CELL_DATA 	      9403
SCALARS 	cell_scalars 	FLOAT 	         1
LOOKUP_TABLE 	DEFAULT
    -0.54498E+02
    -0.57660E+02
    -0.59111E+02
    -0.57205E+02
    -0.63515E+02
    -0.59093E+02
    -0.56650E+02
    -0.63711E+02
    -0.61272E+02
    -0.57359E+02
    -0.59253E+02
    -0.68056E+02
    -0.63899E+02
    -0.59064E+02
    -0.56793E+02
    -0.61953E+02
    -0.65419E+02
    -0.58272E+02
    -0.53694E+02
    -0.53787E+02
    -0.56545E+02
    -0.54890E+02
    -0.57227E+02
    -0.58849E+02
    -0.57835E+02
    -0.61279E+02
    -0.60909E+02
    -0.60290E+02
    -0.61375E+02
    -0.62441E+02
    -0.61545E+02
    -0.63778E+02
    -0.66890E+02
    -0.61303E+02
    -0.61518E+02
    -0.59848E+02
    -0.60802E+02
    -0.59692E+02
    -0.62325E+02
    -0.61904E+02
    -0.62383E+02
    -0.65999E+02
    -0.64163E+02
    -0.66485E+02
    -0.67726E+02
    -0.65425E+02
    -0.65416E+02
    -0.65256E+02
    -0.65308E+02
    -0.65968E+02
    -0.66479E+02
    -0.63069E+02
    -0.66145E+02
    -0.68517E+02
    -0.60159E+02
    -0.58910E+02
    -0.61196E+02
    -0.62684E+02
    -0.63381E+02
    -0.66451E+02
    -0.64809E+02
    -0.66744E+02
    -0.67448E+02
    -0.64794E+02
    -0.66676E+02
    -0.69586E+02
    -0.68140E+02
    -0.67663E+02
    -0.66395E+02
    -0.67096E+02
    -0.69452E+02
    -0.68391E+02
    -0.61996E+02
    -0.61414E+02
    -0.62192E+02
    -0.63500E+02
    -0.63554E+02
    -0.65793E+02
    -0.65707E+02
    -0.66396E+02
    -0.66070E+02
    -0.66360E+02
    -0.68746E+02
    -0.68621E+02
    -0.68534E+02
    -0.70907E+02
    -0.69813E+02
    -0.68257E+02
    -0.69269E+02
    -0.67756E+02
    -0.64667E+02
    -0.63553E+02
    -0.64221E+02
    -0.66485E+02
    -0.65334E+02
    -0.67701E+02
    -0.67463E+02
    -0.66921E+02
    -0.67231E+02
    -0.67334E+02
    -0.68249E+02
    -0.67880E+02
    -0.67896E+02
    -0.69753E+02
    -0.69358E+02
    -0.67948E+02
    -0.68676E+02
    -0.68501E+02
    -0.64977E+02
    -0.63933E+02
    -0.64573E+02
    -0.66035E+02
    -0.64741E+02
    -0.67938E+02
    -0.67698E+02
    -0.66820E+02
    -0.68901E+02
    -0.67715E+02
    -0.68424E+02
    -0.69058E+02
    -0.68131E+02
    -0.69099E+02
    -0.69542E+02
    -0.68047E+02
    -0.67697E+02
    -0.67092E+02
    -0.65440E+02
    -0.65562E+02
    -0.64954E+02
    -0.66110E+02
    -0.65359E+02
    -0.66934E+02
    -0.66907E+02
    -0.65556E+02
    -0.67448E+02
    -0.67001E+02
    -0.67410E+02
    -0.69008E+02
    -0.68253E+02
    -0.69100E+02
    -0.69553E+02
    -0.68178E+02
    -0.67227E+02
    -0.67530E+02
    -0.65426E+02
    -0.65603E+02
    -0.64593E+02
    -0.67953E+02
    -0.66737E+02
    -0.67641E+02
    -0.68877E+02
    -0.66135E+02
    -0.67390E+02
    -0.67537E+02
    -0.65597E+02
    -0.66800E+02
    -0.66399E+02
    -0.65076E+02
    -0.66821E+02
    -0.66272E+02
    -0.66223E+02
    -0.66314E+02
    -0.65324E+02
    -0.65094E+02
    -0.63934E+02
    -0.66707E+02
    -0.64336E+02
    -0.65032E+02
    -0.68501E+02
    -0.65602E+02
    -0.66929E+02
    -0.69169E+02
    -0.65854E+02
    -0.66882E+02
    -0.68377E+02
    -0.65134E+02
    -0.65144E+02
    -0.65631E+02
    -0.65331E+02
    -0.64974E+02
    -0.65418E+02
    -0.66405E+02
    -0.63951E+02
    -0.65994E+02
    -0.65794E+02
    -0.64948E+02
    -0.66994E+02
    -0.65325E+02
    -0.65296E+02
    -0.66529E+02
    -0.63619E+02
    -0.62806E+02
    -0.65415E+02
    -0.63478E+02
    -0.64231E+02
    -0.66225E+02
    -0.64721E+02
    -0.63314E+02
    -0.64406E+02
    -0.65638E+02
    -0.62288E+02
    -0.65760E+02
    -0.66941E+02
    -0.64211E+02
    -0.66381E+02
    -0.66022E+02
    -0.64413E+02
    -0.64597E+02
    -0.63503E+02
    -0.61899E+02
    -0.61492E+02
    -0.61277E+02
    -0.62392E+02
    -0.61781E+02
    -0.61848E+02
    -0.61255E+02
    -0.62478E+02
    -0.61775E+02
    -0.62133E+02
    -0.63164E+02
    -0.61727E+02
    -0.62480E+02
    -0.62941E+02
    -0.59947E+02
    -0.60526E+02
    -0.61411E+02
    -0.60471E+02
    -0.58396E+02
    -0.58146E+02
    -0.58001E+02
    -0.55982E+02
    -0.54729E+02
    -0.57052E+02
    -0.53474E+02
    -0.58676E+02
    -0.64092E+02
    -0.59710E+02
    -0.54999E+02
    -0.60835E+02
    -0.59930E+02
    -0.52740E+02
    -0.56246E+02
    -0.58383E+02
    -0.51487E+02
    -0.52597E+02
    -0.53828E+02
    -0.48017E+02
    -0.44531E+02
    -0.44580E+02
    -0.41355E+02
    -0.35558E+02
    -0.30686E+02
    -0.46791E+02
    -0.49621E+02
    -0.53075E+02
    -0.46134E+02
    -0.40639E+02
    -0.46309E+02
    -0.46340E+02
    -0.37703E+02
    -0.33074E+02
    -0.40044E+02
    -0.39733E+02
    -0.23015E+02
    -0.18881E+02
    -0.18269E+02
    -0.35570E+01
     0.11643E+02
     0.23540E+02
     0.36653E+02
    -0.19565E+02
    -0.64473E+01
    -0.77029E+01
    -0.95744E+01
     0.38657E+01
     0.21212E+02
     0.15235E+02
    -0.30785E+00
     0.24513E+02
     0.50540E+02
     0.28970E+02
     0.29011E+02
     0.62076E+02
     0.78590E+02
     0.84080E+02
     0.10415E+03
     0.13474E+03
     0.15250E+03
     0.60030E+02
     0.85335E+02
     0.99744E+02
     0.10823E+03
     0.11389E+03
     0.14017E+03
     0.15335E+03
     0.12554E+03
     0.10792E+03
     0.14318E+03
     0.17552E+03
     0.18740E+03
     0.16080E+03
     0.18053E+03
     0.24177E+03
     0.26052E+03
     0.27272E+03
     0.28577E+03
     0.21160E+03
     0.23470E+03
     0.25990E+03
     0.30783E+03
     0.30277E+03
     0.30339E+03
     0.32713E+03
     0.32260E+03
     0.28882E+03
     0.26742E+03
     0.30610E+03
     0.35661E+03
     0.35753E+03
     0.38401E+03
     0.38481E+03
     0.37311E+03
     0.43409E+03
     0.46684E+03
     0.40047E+03
     0.41597E+03
     0.43140E+03
     0.51455E+03
     0.51432E+03
     0.48586E+03
     0.49733E+03
     0.51527E+03
     0.51632E+03
     0.48661E+03
     0.49285E+03
     0.49206E+03
     0.49621E+03
     0.55753E+03
     0.57900E+03
     0.56558E+03
     0.60112E+03
     0.62577E+03
     0.59731E+03
     0.59967E+03
     0.61695E+03
     0.69482E+03
     0.69124E+03
     0.66593E+03
     0.67110E+03
     0.68721E+03
     0.70682E+03
     0.71371E+03
     0.71586E+03
     0.68023E+03
     0.67315E+03
     0.73462E+03
     0.75356E+03
     0.70847E+03
     0.72019E+03
     0.77636E+03
     0.79475E+03
     0.79054E+03
     0.82784E+03
     0.84734E+03
     0.83852E+03
     0.83914E+03
     0.84646E+03
     0.85336E+03
     0.86267E+03
     0.87204E+03
     0.88745E+03
     0.89405E+03
     0.89881E+03
     0.92553E+03
     0.92785E+03
     0.89049E+03
     0.89426E+03
     0.93914E+03
     0.10103E+04
     0.10331E+04
     0.10702E+04
     0.10303E+04
     0.10109E+04
     0.10257E+04
     0.10333E+04
     0.10300E+04
     0.10272E+04
     0.10303E+04
     0.10376E+04
     0.10440E+04
     0.10492E+04
     0.10666E+04
     0.10911E+04
     0.11058E+04
     0.11115E+04
     0.11175E+04
     0.12204E+04
     0.12542E+04
     0.12963E+04
     0.12914E+04
     0.12823E+04
     0.12824E+04
     0.12684E+04
     0.12445E+04
     0.12215E+04
     0.12102E+04
     0.12047E+04
     0.12046E+04
     0.12075E+04
     0.12256E+04
     0.12564E+04
     0.12811E+04
     0.12941E+04
     0.13019E+04
     0.14261E+04
     0.14486E+04
     0.14674E+04
     0.14702E+04
     0.14677E+04
     0.14688E+04
     0.14677E+04
     0.14663E+04
     0.14649E+04
     0.14638E+04
     0.14636E+04
     0.14614E+04
     0.14570E+04
     0.14551E+04
     0.14591E+04
     0.14667E+04
     0.14754E+04
     0.14870E+04
     0.16547E+04
     0.16578E+04
     0.16572E+04
     0.16526E+04
     0.16478E+04
     0.16478E+04
     0.16452E+04
     0.16436E+04
     0.16402E+04
     0.16359E+04
     0.16327E+04
     0.16272E+04
     0.16170E+04
     0.16099E+04
     0.16104E+04
     0.16231E+04
     0.16429E+04
     0.16638E+04
     0.17893E+04
     0.18068E+04
     0.18212E+04
     0.18257E+04
     0.18233E+04
     0.18170E+04
     0.18109E+04
     0.18063E+04
     0.18015E+04
     0.17960E+04
     0.17913E+04
     0.17872E+04
     0.17832E+04
     0.17802E+04
     0.17785E+04
     0.17809E+04
     0.17861E+04
     0.17920E+04
    -0.58943E+02
    -0.58848E+02
    -0.67896E+02
    -0.61025E+02
    -0.54461E+02
    -0.56609E+02
    -0.60420E+02
    -0.67075E+02
    -0.55736E+02
    -0.55961E+02
    -0.64155E+02
    -0.57574E+02
    -0.53893E+02
    -0.61279E+02
    -0.54512E+02
    -0.53207E+02
    -0.59780E+02
    -0.53601E+02
    -0.67764E+02
    -0.62052E+02
    -0.63027E+02
    -0.62997E+02
    -0.66089E+02
    -0.61380E+02
    -0.60566E+02
    -0.61935E+02
    -0.59050E+02
    -0.58905E+02
    -0.60988E+02
    -0.57529E+02
    -0.56588E+02
    -0.58821E+02
    -0.54110E+02
    -0.54895E+02
    -0.54211E+02
    -0.50801E+02
    -0.67481E+02
    -0.70020E+02
    -0.66584E+02
    -0.65164E+02
    -0.67122E+02
    -0.66213E+02
    -0.63950E+02
    -0.62849E+02
    -0.62427E+02
    -0.63555E+02
    -0.63683E+02
    -0.60893E+02
    -0.61903E+02
    -0.62504E+02
    -0.59935E+02
    -0.61213E+02
    -0.59554E+02
    -0.60264E+02
    -0.65934E+02
    -0.69510E+02
    -0.69860E+02
    -0.68410E+02
    -0.67481E+02
    -0.67369E+02
    -0.66061E+02
    -0.65647E+02
    -0.64803E+02
    -0.65711E+02
    -0.66049E+02
    -0.62971E+02
    -0.64520E+02
    -0.64841E+02
    -0.62632E+02
    -0.63183E+02
    -0.60910E+02
    -0.60690E+02
    -0.68173E+02
    -0.68195E+02
    -0.68224E+02
    -0.68752E+02
    -0.68741E+02
    -0.67273E+02
    -0.66828E+02
    -0.67274E+02
    -0.66230E+02
    -0.66166E+02
    -0.66832E+02
    -0.64078E+02
    -0.64953E+02
    -0.63836E+02
    -0.62246E+02
    -0.62597E+02
    -0.61423E+02
    -0.61687E+02
    -0.70511E+02
    -0.68193E+02
    -0.67763E+02
    -0.68447E+02
    -0.67915E+02
    -0.66794E+02
    -0.66443E+02
    -0.66529E+02
    -0.66235E+02
    -0.66997E+02
    -0.66674E+02
    -0.65665E+02
    -0.67412E+02
    -0.64695E+02
    -0.64262E+02
    -0.64262E+02
    -0.63137E+02
    -0.63652E+02
    -0.69520E+02
    -0.67506E+02
    -0.67196E+02
    -0.67980E+02
    -0.66900E+02
    -0.66620E+02
    -0.67690E+02
    -0.67715E+02
    -0.67167E+02
    -0.68616E+02
    -0.66883E+02
    -0.66709E+02
    -0.68681E+02
    -0.64787E+02
    -0.65670E+02
    -0.65279E+02
    -0.62226E+02
    -0.63236E+02
    -0.69683E+02
    -0.67279E+02
    -0.67520E+02
    -0.68903E+02
    -0.67742E+02
    -0.67517E+02
    -0.69569E+02
    -0.68009E+02
    -0.66329E+02
    -0.67745E+02
    -0.65144E+02
    -0.65511E+02
    -0.67016E+02
    -0.64531E+02
    -0.65671E+02
    -0.64197E+02
    -0.62988E+02
    -0.64478E+02
    -0.70175E+02
    -0.68278E+02
    -0.66347E+02
    -0.68412E+02
    -0.65812E+02
    -0.65102E+02
    -0.67302E+02
    -0.64353E+02
    -0.65007E+02
    -0.67293E+02
    -0.65134E+02
    -0.67348E+02
    -0.67314E+02
    -0.65233E+02
    -0.67873E+02
    -0.64515E+02
    -0.64577E+02
    -0.64279E+02
    -0.67358E+02
    -0.67828E+02
    -0.65849E+02
    -0.65572E+02
    -0.63505E+02
    -0.65977E+02
    -0.67857E+02
    -0.64834E+02
    -0.67875E+02
    -0.67990E+02
    -0.65445E+02
    -0.68853E+02
    -0.65860E+02
    -0.62986E+02
    -0.66772E+02
    -0.64051E+02
    -0.64497E+02
    -0.64423E+02
    -0.63916E+02
    -0.65946E+02
    -0.66324E+02
    -0.64492E+02
    -0.63457E+02
    -0.67942E+02
    -0.65487E+02
    -0.62961E+02
    -0.65915E+02
    -0.64296E+02
    -0.63423E+02
    -0.66503E+02
    -0.64384E+02
    -0.64146E+02
    -0.65750E+02
    -0.63846E+02
    -0.65668E+02
    -0.64922E+02
    -0.60812E+02
    -0.62346E+02
    -0.61579E+02
    -0.62139E+02
    -0.61100E+02
    -0.62210E+02
    -0.62782E+02
    -0.62987E+02
    -0.63586E+02
    -0.63397E+02
    -0.64399E+02
    -0.65828E+02
    -0.64016E+02
    -0.66296E+02
    -0.65834E+02
    -0.62945E+02
    -0.65459E+02
    -0.65151E+02
    -0.51315E+02
    -0.56350E+02
    -0.53859E+02
    -0.55269E+02
    -0.57312E+02
    -0.57050E+02
    -0.58223E+02
    -0.60161E+02
    -0.60271E+02
    -0.60395E+02
    -0.60694E+02
    -0.63049E+02
    -0.61560E+02
    -0.61271E+02
    -0.62798E+02
    -0.62392E+02
    -0.62326E+02
    -0.64263E+02
    -0.22851E+02
    -0.29012E+02
    -0.36572E+02
    -0.41348E+02
    -0.42699E+02
    -0.46936E+02
    -0.52285E+02
    -0.51068E+02
    -0.50863E+02
    -0.57972E+02
    -0.55962E+02
    -0.52513E+02
    -0.58850E+02
    -0.59875E+02
    -0.54830E+02
    -0.60466E+02
    -0.65094E+02
    -0.59538E+02
     0.57386E+02
     0.44064E+02
     0.25394E+02
     0.33645E+01
    -0.10657E+02
    -0.10912E+02
    -0.18181E+02
    -0.36219E+02
    -0.36394E+02
    -0.31216E+02
    -0.39222E+02
    -0.46065E+02
    -0.41926E+02
    -0.39546E+02
    -0.46799E+02
    -0.51878E+02
    -0.48199E+02
    -0.45957E+02
     0.17839E+03
     0.15989E+03
     0.12740E+03
     0.10383E+03
     0.94928E+02
     0.78129E+02
     0.45187E+02
     0.44502E+02
     0.58538E+02
     0.18479E+02
    -0.67455E+01
     0.19338E+02
     0.26297E+02
     0.30409E+01
    -0.83862E+01
     0.31200E+00
    -0.24887E+01
    -0.17821E+02
     0.31562E+03
     0.30575E+03
     0.28678E+03
     0.26868E+03
     0.21243E+03
     0.20718E+03
     0.23126E+03
     0.20032E+03
     0.14896E+03
     0.11320E+03
     0.14292E+03
     0.16525E+03
     0.15327E+03
     0.11671E+03
     0.10555E+03
     0.11309E+03
     0.92711E+02
     0.64310E+02
     0.49196E+03
     0.45437E+03
     0.40535E+03
     0.42727E+03
     0.42397E+03
     0.39991E+03
     0.38273E+03
     0.33015E+03
     0.31036E+03
     0.33300E+03
     0.35932E+03
     0.34949E+03
     0.33218E+03
     0.32282E+03
     0.28928E+03
     0.26965E+03
     0.24598E+03
     0.22280E+03
     0.65826E+03
     0.62700E+03
     0.61240E+03
     0.61507E+03
     0.56261E+03
     0.52858E+03
     0.55070E+03
     0.53233E+03
     0.54010E+03
     0.56147E+03
     0.54502E+03
     0.51868E+03
     0.52004E+03
     0.52718E+03
     0.47888E+03
     0.45155E+03
     0.43684E+03
     0.41605E+03
     0.78102E+03
     0.75149E+03
     0.78055E+03
     0.79791E+03
     0.73853E+03
     0.71276E+03
     0.75266E+03
     0.75848E+03
     0.74208E+03
     0.72882E+03
     0.70798E+03
     0.68693E+03
     0.69081E+03
     0.70345E+03
     0.66805E+03
     0.64159E+03
     0.63414E+03
     0.61938E+03
     0.94487E+03
     0.92873E+03
     0.95101E+03
     0.96479E+03
     0.94206E+03
     0.93175E+03
     0.93376E+03
     0.92014E+03
     0.90455E+03
     0.88735E+03
     0.86420E+03
     0.84259E+03
     0.84510E+03
     0.87658E+03
     0.87647E+03
     0.84003E+03
     0.83271E+03
     0.81868E+03
     0.11196E+04
     0.11139E+04
     0.11117E+04
     0.11103E+04
     0.11091E+04
     0.11125E+04
     0.11135E+04
     0.11028E+04
     0.10858E+04
     0.10609E+04
     0.10275E+04
     0.10113E+04
     0.10432E+04
     0.11029E+04
     0.11103E+04
     0.10613E+04
     0.10385E+04
     0.10173E+04
     0.12988E+04
     0.12881E+04
     0.12836E+04
     0.12851E+04
     0.12943E+04
     0.13057E+04
     0.13108E+04
     0.13075E+04
     0.13006E+04
     0.12943E+04
     0.12869E+04
     0.12887E+04
     0.13053E+04
     0.13150E+04
     0.12989E+04
     0.12665E+04
     0.12391E+04
     0.12073E+04
     0.15123E+04
     0.15134E+04
     0.15146E+04
     0.15132E+04
     0.15097E+04
     0.15037E+04
     0.14978E+04
     0.14934E+04
     0.14903E+04
     0.14887E+04
     0.14882E+04
     0.14917E+04
     0.14985E+04
     0.14995E+04
     0.14902E+04
     0.14721E+04
     0.14432E+04
     0.13909E+04
     0.16919E+04
     0.16917E+04
     0.16906E+04
     0.16882E+04
     0.16845E+04
     0.16796E+04
     0.16763E+04
     0.16753E+04
     0.16757E+04
     0.16772E+04
     0.16791E+04
     0.16829E+04
     0.16880E+04
     0.16921E+04
     0.16934E+04
     0.16877E+04
     0.16704E+04
     0.16364E+04
     0.17956E+04
     0.17949E+04
     0.17943E+04
     0.17941E+04
     0.17945E+04
     0.17946E+04
     0.17957E+04
     0.17986E+04
     0.18023E+04
     0.18070E+04
     0.18124E+04
     0.18184E+04
     0.18255E+04
     0.18306E+04
     0.18289E+04
     0.18226E+04
     0.18082E+04
     0.17905E+04
    -0.53587E+02
    -0.41996E+02
    -0.54049E+02
    -0.52203E+02
    -0.41527E+02
    -0.56222E+02
    -0.52047E+02
    -0.46648E+02
    -0.48208E+02
    -0.59819E+02
    -0.51101E+02
    -0.49675E+02
    -0.45754E+02
    -0.57041E+02
    -0.53407E+02
    -0.53130E+02
    -0.51688E+02
    -0.58078E+02
    -0.56465E+02
    -0.56655E+02
    -0.53850E+02
    -0.57500E+02
    -0.56924E+02
    -0.59673E+02
    -0.57830E+02
    -0.61429E+02
    -0.53612E+02
    -0.53485E+02
    -0.52042E+02
    -0.59496E+02
    -0.59162E+02
    -0.56511E+02
    -0.54919E+02
    -0.56419E+02
    -0.51076E+02
    -0.55652E+02
    -0.51553E+02
    -0.55447E+02
    -0.54518E+02
    -0.56901E+02
    -0.56478E+02
    -0.59230E+02
    -0.58005E+02
    -0.62569E+02
    -0.57713E+02
    -0.57281E+02
    -0.54975E+02
    -0.56337E+02
    -0.58134E+02
    -0.58537E+02
    -0.58907E+02
    -0.61214E+02
    -0.49059E+02
    -0.61044E+02
    -0.52329E+02
    -0.56623E+02
    -0.49948E+02
    -0.52483E+02
    -0.51121E+02
    -0.55259E+02
    -0.53653E+02
    -0.58402E+02
    -0.56094E+02
    -0.64829E+02
    -0.55380E+02
    -0.54705E+02
    -0.51168E+02
    -0.55482E+02
    -0.58121E+02
    -0.62949E+02
    -0.30241E+02
    -0.25239E+02
    -0.19711E+02
    -0.18735E+02
    -0.16868E+02
    -0.16623E+02
    -0.15542E+02
    -0.15638E+02
    -0.15045E+02
    -0.15464E+02
    -0.15278E+02
    -0.15362E+02
    -0.14633E+02
    -0.14841E+02
    -0.14883E+02
    -0.15730E+02
    -0.15472E+02
    -0.16100E+02
    -0.16049E+02
    -0.17013E+02
    -0.17511E+02
    -0.18620E+02
    -0.18796E+02
    -0.19885E+02
    -0.20556E+02
    -0.22325E+02
    -0.23051E+02
    -0.25782E+02
    -0.27848E+02
    -0.34694E+02
    -0.61282E+02
    -0.58944E+02
    -0.40420E+02
    -0.25978E+02
    -0.31795E+02
    -0.32962E+02
    -0.27256E+02
    -0.35441E+02
    -0.28885E+02
    -0.40458E+02
    -0.32881E+02
    -0.44285E+02
    -0.36795E+02
    -0.47028E+02
    -0.40796E+02
    -0.41772E+02
    -0.36013E+02
    -0.43063E+02
    -0.37113E+02
    -0.44905E+02
    -0.38773E+02
    -0.47484E+02
    -0.41671E+02
    -0.52036E+02
    -0.45071E+02
    -0.54307E+02
    -0.50113E+02
    -0.34326E+02
    -0.37944E+02
    -0.40449E+02
    -0.35232E+02
    -0.40101E+02
    -0.36160E+02
    -0.40524E+02
    -0.35916E+02
    -0.41886E+02
    -0.36815E+02
    -0.44548E+02
    -0.39099E+02
    -0.44095E+02
    -0.40397E+02
    -0.43640E+02
    -0.38573E+02
    -0.47678E+02
    -0.40099E+02
    -0.35937E+02
    -0.40664E+02
    -0.43837E+02
    -0.38734E+02
    -0.45704E+02
    -0.41386E+02
    -0.46905E+02
    -0.42630E+02
    -0.48692E+02
    -0.44343E+02
    -0.50696E+02
    -0.46902E+02
    -0.50356E+02
    -0.46929E+02
    -0.51820E+02
    -0.47235E+02
    -0.52459E+02
    -0.48082E+02
    -0.26153E+02
    -0.28787E+02
    -0.22197E+02
    -0.23355E+02
    -0.20219E+02
    -0.21248E+02
    -0.18236E+02
    -0.19217E+02
    -0.16995E+02
    -0.17602E+02
    -0.16357E+02
    -0.16664E+02
    -0.15747E+02
    -0.16605E+02
    -0.14993E+02
    -0.15662E+02
    -0.14577E+02
    -0.15138E+02
    -0.14946E+02
    -0.14640E+02
    -0.14865E+02
    -0.15008E+02
    -0.15002E+02
    -0.14919E+02
    -0.16129E+02
    -0.15210E+02
    -0.18646E+02
    -0.17017E+02
    -0.20418E+02
    -0.54426E+02
    -0.50365E+02
    -0.51072E+02
    -0.44163E+02
    -0.33307E+02
    -0.31457E+02
    -0.30554E+02
    -0.30171E+02
    -0.21152E+02
    -0.19251E+02
    -0.31047E+02
    -0.29388E+02
    -0.31268E+02
    -0.35787E+02
    -0.33661E+02
    -0.36983E+02
    -0.23060E+02
    -0.20340E+02
    -0.26185E+02
    -0.23007E+02
    -0.29373E+02
    -0.25948E+02
    -0.34920E+02
    -0.29316E+02
    -0.27661E+02
    -0.30412E+02
    -0.32214E+02
    -0.29391E+02
    -0.35151E+02
    -0.31875E+02
    -0.38701E+02
    -0.35123E+02
    -0.43630E+02
    -0.38674E+02
    -0.38187E+02
    -0.36258E+02
    -0.39366E+02
    -0.37481E+02
    -0.41042E+02
    -0.38560E+02
    -0.41243E+02
    -0.31635E+02
    -0.29921E+02