# vtk DataFile Version 3.14.1
BMesh by KP LIAO
ASCII
DATASET UNSTRUCTURED_GRID
POINTS 	      8150 	FLOAT
    5.19444 	   2.72293 	   4.18097
    5.19524 	   2.59612 	   4.07047
    5.19599 	   2.52826 	   3.96632
    5.19730 	   2.50011 	   3.78500
    5.54832 	   2.50011 	   3.78342
    5.54543 	   2.81742 	   4.18355
    5.19599 	   2.47180 	   3.96630
    5.19524 	   2.40385 	   4.07039
    5.19444 	   2.27695 	   4.18079
    5.54543 	   2.18246 	   4.18328
    6.24741 	   2.82661 	   4.18862
    6.25030 	   2.50011 	   3.78849
    6.24742 	   2.17327 	   4.18834
    7.88826 	   2.50011 	   3.80031
    7.88537 	   2.17327 	   4.20016
    7.88537 	   2.82661 	   4.20044
    9.28933 	   2.82661 	   4.21057
    9.29222 	   2.50011 	   3.81044
    9.28934 	   2.17327 	   4.21030
    9.65432 	   2.50008 	   3.89106
    9.65434 	   2.49341 	   3.88844
    9.58401 	   2.49340 	   3.90900
    9.60146 	   2.50005 	   3.95935
    9.58365 	   2.48831 	   3.95921
    9.55736 	   2.48362 	   3.95233
    9.58456 	   2.50010 	   3.83335
    9.55807 	   2.50010 	   3.82570
    9.52525 	   2.47768 	   3.94649
    9.52616 	   2.50011 	   3.81929
    9.58401 	   2.50673 	   3.90901
    9.65434 	   2.50674 	   3.88845
    9.58365 	   2.51178 	   3.95922
    9.55736 	   2.51648 	   3.95234
    9.52525 	   2.52242 	   3.94651
    9.83199 	   2.82661 	   4.21449
    9.64033 	   2.82661 	   4.21310
    9.83341 	   2.50002 	   4.01702
    9.64201 	   2.50004 	   3.97939
    9.52333 	   2.82661 	   4.21226
    9.64033 	   2.17327 	   4.21283
    9.83199 	   2.17327 	   4.21421
    9.52333 	   2.17327 	   4.21199
    9.42740 	   2.17327 	   4.21129
    9.42740 	   2.82661 	   4.21157
    9.83199 	   2.49994 	   4.21435
    9.65449 	   2.50009 	   3.86706
    9.43029 	   2.50011 	   3.81144
    5.13748 	   2.51698 	   3.96714
    5.13791 	   2.52667 	   3.90741
    5.13875 	   2.50010 	   3.79224
    5.13791 	   2.47344 	   3.90738
    5.13748 	   2.48308 	   3.96712
    5.07937 	   2.47729 	   3.91337
    5.07908 	   2.49086 	   3.95337
    5.07899 	   2.50003 	   3.96671
    5.07908 	   2.50921 	   3.95338
    5.07937 	   2.52281 	   3.91339
    5.06865 	   2.50004 	   3.95330
    5.02087 	   2.52065 	   3.91296
    5.02058 	   2.50004 	   3.95295
    5.02087 	   2.47945 	   3.91294
    5.08014 	   2.50010 	   3.80678
    5.02145 	   2.50009 	   3.83218
    4.94347 	   2.50005 	   3.91239
    5.13594 	   2.69231 	   4.18054
    5.13594 	   2.30757 	   4.18038
    4.93686 	   2.49994 	   4.17902
    5.13671 	   2.57083 	   4.07382
    5.02467 	   2.49999 	   4.07299
    5.13671 	   2.42915 	   4.07376
    5.21288 	   2.73136 	   4.18062
    5.23151 	   2.73939 	   4.18050
    5.25030 	   2.74701 	   4.18061
    5.26925 	   2.75422 	   4.18091
    5.28836 	   2.76102 	   4.18132
    5.30761 	   2.76739 	   4.18176
    5.32699 	   2.77336 	   4.18213
    5.34649 	   2.77892 	   4.18241
    5.36609 	   2.78411 	   4.18257
    5.38579 	   2.78896 	   4.18265
    5.40555 	   2.79350 	   4.18268
    5.42539 	   2.79775 	   4.18269
    5.44527 	   2.80173 	   4.18273
    5.46521 	   2.80545 	   4.18280
    5.48520 	   2.80889 	   4.18293
    5.50523 	   2.81204 	   4.18311
    5.52531 	   2.81489 	   4.18332
    5.19452 	   2.70798 	   4.16973
    5.19461 	   2.69327 	   4.15818
    5.19469 	   2.67883 	   4.14629
    5.19478 	   2.66461 	   4.13414
    5.19487 	   2.65055 	   4.12179
    5.19496 	   2.63664 	   4.10929
    5.19505 	   2.62292 	   4.09657
    5.19514 	   2.60944 	   4.08361
    5.19533 	   2.58335 	   4.05758
    5.19543 	   2.57072 	   4.04454
    5.19552 	   2.55861 	   4.03104
    5.19563 	   2.54769 	   4.01655
    5.19574 	   2.53847 	   4.00094
    5.19586 	   2.53176 	   3.98410
    5.19613 	   2.52757 	   3.94668
    5.19627 	   2.52902 	   3.92708
    5.19641 	   2.53186 	   3.90762
    5.19655 	   2.53475 	   3.88817
    5.19670 	   2.53647 	   3.86860
    5.19684 	   2.53571 	   3.84895
    5.19698 	   2.53270 	   3.82953
    5.19711 	   2.52675 	   3.81082
    5.19724 	   2.51693 	   3.79385
    5.52881 	   2.50011 	   3.78318
    5.50930 	   2.50011 	   3.78295
    5.48980 	   2.50011 	   3.78277
    5.47029 	   2.50011 	   3.78265
    5.45078 	   2.50011 	   3.78259
    5.43127 	   2.50011 	   3.78258
    5.41176 	   2.50011 	   3.78260
    5.39225 	   2.50011 	   3.78261
    5.37274 	   2.50011 	   3.78255
    5.35323 	   2.50011 	   3.78238
    5.33372 	   2.50011 	   3.78210
    5.31422 	   2.50011 	   3.78173
    5.29471 	   2.50011 	   3.78137
    5.27520 	   2.50011 	   3.78117
    5.25569 	   2.50011 	   3.78132
    5.23619 	   2.50011 	   3.78195
    5.21672 	   2.50011 	   3.78317
    5.54556 	   2.80933 	   4.16533
    5.54569 	   2.79956 	   4.14796
    5.54581 	   2.78821 	   4.13158
    5.54592 	   2.77588 	   4.11591
    5.54603 	   2.76284 	   4.10082
    5.54614 	   2.74932 	   4.08617
    5.54624 	   2.73545 	   4.07185
    5.54634 	   2.72131 	   4.05779
    5.54644 	   2.70692 	   4.04400
    5.54654 	   2.69262 	   4.03010
    5.54664 	   2.67878 	   4.01575
    5.54675 	   2.66542 	   4.00095
    5.54686 	   2.65247 	   3.98579
    5.54697 	   2.63999 	   3.97024
    5.54709 	   2.62793 	   3.95436
    5.54720 	   2.61602 	   3.93837
    5.54732 	   2.60411 	   3.92238
    5.54743 	   2.59222 	   3.90637
    5.54755 	   2.58034 	   3.89037
    5.54767 	   2.56873 	   3.87415
    5.54779 	   2.55796 	   3.85738
    5.54791 	   2.54881 	   3.83968
    5.54805 	   2.54164 	   3.82108
    5.54818 	   2.53265 	   3.80335
    5.54828 	   2.51874 	   3.78923
    5.19613 	   2.47251 	   3.94666
    5.19627 	   2.47108 	   3.92705
    5.19641 	   2.46825 	   3.90759
    5.19656 	   2.46537 	   3.88814
    5.19670 	   2.46368 	   3.86857
    5.19684 	   2.46445 	   3.84892
    5.19698 	   2.46748 	   3.82950
    5.19711 	   2.47344 	   3.81080
    5.19724 	   2.48328 	   3.79383
    5.19533 	   2.41663 	   4.05751
    5.19543 	   2.42927 	   4.04448
    5.19552 	   2.44140 	   4.03099
    5.19563 	   2.45233 	   4.01651
    5.19574 	   2.46156 	   4.00091
    5.19586 	   2.46829 	   3.98408
    5.19452 	   2.29191 	   4.16956
    5.19461 	   2.30663 	   4.15801
    5.19469 	   2.32109 	   4.14614
    5.19478 	   2.33531 	   4.13400
    5.19487 	   2.34938 	   4.12166
    5.19496 	   2.36330 	   4.10918
    5.19505 	   2.37703 	   4.09647
    5.19515 	   2.39053 	   4.08352
    5.21289 	   2.26852 	   4.18042
    5.23151 	   2.26049 	   4.18030
    5.25030 	   2.25287 	   4.18041
    5.26926 	   2.24566 	   4.18070
    5.28836 	   2.23886 	   4.18110
    5.30761 	   2.23249 	   4.18153
    5.32699 	   2.22653 	   4.18190
    5.34649 	   2.22096 	   4.18217
    5.36610 	   2.21577 	   4.18234
    5.38579 	   2.21092 	   4.18241
    5.40556 	   2.20638 	   4.18243
    5.42539 	   2.20213 	   4.18244
    5.44527 	   2.19815 	   4.18247
    5.46521 	   2.19443 	   4.18255
    5.48520 	   2.19099 	   4.18267
    5.50523 	   2.18784 	   4.18285
    5.52531 	   2.18499 	   4.18305
    5.54557 	   2.19056 	   4.16507
    5.54569 	   2.20035 	   4.14771
    5.54581 	   2.21172 	   4.13133
    5.54592 	   2.22406 	   4.11568
    5.54603 	   2.23711 	   4.10060
    5.54614 	   2.25064 	   4.08596
    5.54624 	   2.26453 	   4.07165
    5.54634 	   2.27867 	   4.05760
    5.54644 	   2.29308 	   4.04382
    5.54654 	   2.30739 	   4.02994
    5.54664 	   2.32124 	   4.01560
    5.54675 	   2.33462 	   4.00081
    5.54686 	   2.34758 	   3.98566
    5.54697 	   2.36007 	   3.97012
    5.54709 	   2.37214 	   3.95425
    5.54720 	   2.38406 	   3.93827
    5.54732 	   2.39599 	   3.92230
    5.54743 	   2.40789 	   3.90630
    5.54755 	   2.41979 	   3.89030
    5.54767 	   2.43141 	   3.87410
    5.54779 	   2.44219 	   3.85733
    5.54791 	   2.45136 	   3.83963
    5.54805 	   2.45855 	   3.82105
    5.54818 	   2.46755 	   3.80333
    5.54828 	   2.48147 	   3.78921
    5.19444 	   2.30319 	   4.18080
    5.19444 	   2.32942 	   4.18081
    5.19444 	   2.35566 	   4.18082
    5.19444 	   2.38189 	   4.18083
    5.19444 	   2.40812 	   4.18084
    5.19444 	   2.43436 	   4.18085
    5.19444 	   2.46059 	   4.18086
    5.19444 	   2.48682 	   4.18087
    5.19444 	   2.51306 	   4.18089
    5.19444 	   2.53929 	   4.18090
    5.19444 	   2.56553 	   4.18091
    5.19444 	   2.59176 	   4.18092
    5.19444 	   2.61799 	   4.18093
    5.19444 	   2.64423 	   4.18094
    5.19444 	   2.67046 	   4.18095
    5.19444 	   2.69669 	   4.18096
    5.54543 	   2.24596 	   4.18331
    5.54543 	   2.30945 	   4.18333
    5.54543 	   2.37295 	   4.18336
    5.54543 	   2.43644 	   4.18339
    5.54543 	   2.49994 	   4.18341
    5.54543 	   2.56344 	   4.18344
    5.54543 	   2.62693 	   4.18347
    5.54543 	   2.69043 	   4.18349
    5.54543 	   2.75392 	   4.18352
    6.24758 	   2.82662 	   4.16527
    6.24775 	   2.82663 	   4.14193
    6.24792 	   2.82664 	   4.11858
    6.24809 	   2.82665 	   4.09524
    6.24826 	   2.82666 	   4.07189
    6.24842 	   2.82637 	   4.04855
    6.24859 	   2.82466 	   4.02528
    6.24876 	   2.82067 	   4.00229
    6.24892 	   2.81374 	   3.98002
    6.24907 	   2.80346 	   3.95909
    6.24921 	   2.79072 	   3.93953
    6.24935 	   2.77646 	   3.92106
    6.24947 	   2.76115 	   3.90344
    6.24960 	   2.74527 	   3.88632
    6.24972 	   2.72914 	   3.86944
    6.24984 	   2.71279 	   3.85278
    6.24996 	   2.69617 	   3.83639
    6.25007 	   2.67894 	   3.82064
    6.25017 	   2.66021 	   3.80673
    6.25024 	   2.63932 	   3.79641
    6.25029 	   2.61673 	   3.79066
    6.25030 	   2.59349 	   3.78867
    6.25030 	   2.57015 	   3.78852
    6.25030 	   2.54680 	   3.78851
    6.25030 	   2.52345 	   3.78850
    5.58425 	   2.82135 	   4.18399
    5.62317 	   2.82409 	   4.18439
    5.66215 	   2.82576 	   4.18470
    5.70116 	   2.82657 	   4.18492
    5.74018 	   2.82677 	   4.18509
    5.77920 	   2.82661 	   4.18524
    5.81822 	   2.82630 	   4.18539
[...]
CELL_DATA 	      9403
SCALARS 	cell_scalars 	FLOAT 	         1
LOOKUP_TABLE 	DEFAULT
    -0.82344E+02
    -0.83165E+02
    -0.80409E+02
    -0.78254E+02
    -0.68103E+02
    -0.60821E+02
    -0.61972E+02
    -0.54248E+02
    -0.61907E+02
    -0.67697E+02
    -0.63838E+02
    -0.57268E+02
    -0.61407E+02
    -0.63289E+02
    -0.64306E+02
    -0.64530E+02
    -0.58196E+02
    -0.52613E+02
    -0.77790E+02
    -0.75880E+02
    -0.76028E+02
    -0.73076E+02
    -0.68756E+02
    -0.65390E+02
    -0.63699E+02
    -0.63856E+02
    -0.68315E+02
    -0.68231E+02
    -0.64916E+02
    -0.68104E+02
    -0.68836E+02
    -0.66455E+02
    -0.63458E+02
    -0.66610E+02
    -0.65093E+02
    -0.63649E+02
    -0.80574E+02
    -0.78845E+02
    -0.79515E+02
    -0.77798E+02
    -0.77455E+02
    -0.77533E+02
    -0.73480E+02
    -0.72950E+02
    -0.76147E+02
    -0.74668E+02
    -0.71217E+02
    -0.74992E+02
    -0.76096E+02
    -0.72549E+02
    -0.69044E+02
    -0.71196E+02
    -0.70513E+02
    -0.70436E+02
    -0.81613E+02
    -0.81591E+02
    -0.81940E+02
    -0.79412E+02
    -0.80355E+02
    -0.80923E+02
    -0.77420E+02
    -0.78004E+02
    -0.77983E+02
    -0.76096E+02
    -0.76629E+02
    -0.78561E+02
    -0.77032E+02
    -0.74065E+02
    -0.75726E+02
    -0.75934E+02
    -0.72483E+02
    -0.72517E+02
    -0.86114E+02
    -0.86886E+02
    -0.87061E+02
    -0.84992E+02
    -0.85557E+02
    -0.85707E+02
    -0.84168E+02
    -0.84307E+02
    -0.81433E+02
    -0.80048E+02
    -0.79600E+02
    -0.79847E+02
    -0.79569E+02
    -0.78133E+02
    -0.79129E+02
    -0.77691E+02
    -0.75540E+02
    -0.78069E+02
    -0.92264E+02
    -0.91804E+02
    -0.95481E+02
    -0.94590E+02
    -0.99077E+02
    -0.99365E+02
    -0.99009E+02
    -0.10201E+03
    -0.94326E+02
    -0.97064E+02
    -0.99042E+02
    -0.90839E+02
    -0.94709E+02
    -0.99019E+02
    -0.90744E+02
    -0.88066E+02
    -0.90097E+02
    -0.90248E+02
    -0.11981E+03
    -0.10903E+03
    -0.12106E+03
    -0.11618E+03
    -0.13007E+03
    -0.13945E+03
    -0.12409E+03
    -0.13806E+03
    -0.12797E+03
    -0.12342E+03
    -0.13164E+03
    -0.11900E+03
    -0.12666E+03
    -0.12437E+03
    -0.10935E+03
    -0.11563E+03
    -0.10376E+03
    -0.93630E+02
    -0.15172E+03
    -0.14513E+03
    -0.15769E+03
    -0.14277E+03
    -0.15445E+03
    -0.15677E+03
    -0.13390E+03
    -0.16317E+03
    -0.14755E+03
    -0.13846E+03
    -0.15275E+03
    -0.12343E+03
    -0.14171E+03
    -0.14334E+03
    -0.10342E+03
    -0.10618E+03
    -0.91972E+02
    -0.76739E+02
    -0.17111E+03
    -0.15190E+03
    -0.17611E+03
    -0.16198E+03
    -0.14832E+03
    -0.15311E+03
    -0.11384E+03
    -0.13814E+03
    -0.13167E+03
    -0.10363E+03
    -0.11283E+03
    -0.81267E+02
    -0.78846E+02
    -0.82111E+02
    -0.38428E+02
    -0.41563E+02
    -0.40850E+02
    -0.83531E+01
    -0.12743E+03
    -0.94818E+02
    -0.11742E+03
    -0.92734E+02
    -0.75835E+02
    -0.86607E+02
    -0.49194E+02
    -0.60613E+02
    -0.60779E+02
    -0.27913E+02
    -0.40168E+02
    -0.25049E+02
     0.58010E+01
     0.98099E+01
     0.51743E+02
     0.63016E+02
     0.64665E+02
     0.98506E+02
    -0.52731E+02
    -0.19114E+02
    -0.29358E+02
    -0.57002E+01
     0.20625E+02
     0.17780E+02
     0.47990E+02
     0.50474E+02
     0.55140E+02
     0.87999E+02
     0.83802E+02
     0.87874E+02
     0.11642E+03
     0.12526E+03
     0.15129E+03
     0.16829E+03
     0.16757E+03
     0.20375E+03
     0.65668E+02
     0.10924E+03
     0.95849E+02
     0.11430E+03
     0.14009E+03
     0.14375E+03
     0.16361E+03
     0.16546E+03
     0.17406E+03
     0.20505E+03
     0.20403E+03
     0.21151E+03
     0.24378E+03
     0.25564E+03
     0.27452E+03
     0.29225E+03
     0.28233E+03
     0.31305E+03
     0.20676E+03
     0.24466E+03
     0.24829E+03
     0.26991E+03
     0.28299E+03
     0.29083E+03
     0.30533E+03
     0.30247E+03
     0.31145E+03
     0.33492E+03
     0.33983E+03
     0.35084E+03
     0.36783E+03
     0.37822E+03
     0.40410E+03
     0.41584E+03
     0.41381E+03
     0.43492E+03
     0.35652E+03
     0.40159E+03
     0.41023E+03
     0.43063E+03
     0.44534E+03
     0.44008E+03
     0.44346E+03
     0.45671E+03
     0.46436E+03
     0.46863E+03
     0.48331E+03
     0.49674E+03
     0.50282E+03
     0.51758E+03
     0.52851E+03
     0.53040E+03
     0.55052E+03
     0.56378E+03
     0.50856E+03
     0.57762E+03
     0.58364E+03
     0.58993E+03
     0.60370E+03
     0.58815E+03
     0.58728E+03
     0.60413E+03
     0.60593E+03
     0.61932E+03
     0.63481E+03
     0.63066E+03
     0.64949E+03
     0.67145E+03
     0.65954E+03
     0.66287E+03
     0.67699E+03
     0.67756E+03
     0.66620E+03
     0.72633E+03
     0.75358E+03
     0.74458E+03
     0.73683E+03
     0.73653E+03
     0.74257E+03
     0.75155E+03
     0.75358E+03
     0.77081E+03
     0.78668E+03
     0.78038E+03
     0.79265E+03
     0.79894E+03
     0.79308E+03
     0.80765E+03
     0.80190E+03
     0.81096E+03
     0.84137E+03
     0.89910E+03
     0.92626E+03
     0.89601E+03
     0.87644E+03
     0.88631E+03
     0.89776E+03
     0.90898E+03
     0.91728E+03
     0.92450E+03
     0.92906E+03
     0.91884E+03
     0.93689E+03
     0.94982E+03
     0.93621E+03
     0.94260E+03
     0.93454E+03
     0.96126E+03
     0.10389E+04
     0.10853E+04
     0.11190E+04
     0.10651E+04
     0.10168E+04
     0.10363E+04
     0.10545E+04
     0.10544E+04
     0.10700E+04
     0.10866E+04
     0.10803E+04
     0.10697E+04
     0.10801E+04
     0.10840E+04
     0.10810E+04
     0.10982E+04
     0.10833E+04
     0.10892E+04
     0.12289E+04
     0.12755E+04
     0.13106E+04
     0.12142E+04
     0.11509E+04
     0.11890E+04
     0.12163E+04
     0.12105E+04
     0.12091E+04
     0.12321E+04
     0.12374E+04
     0.12324E+04
     0.12413E+04
     0.12310E+04
     0.12267E+04
     0.12405E+04
     0.12316E+04
     0.12261E+04
     0.14071E+04
     0.14528E+04
     0.14906E+04
     0.13482E+04
     0.12959E+04
     0.13589E+04
     0.13888E+04
     0.13825E+04
     0.13738E+04
     0.13728E+04
     0.13640E+04
     0.13782E+04
     0.14050E+04
     0.13922E+04
     0.13754E+04
     0.13822E+04
     0.13852E+04
     0.13823E+04
     0.15713E+04
     0.15987E+04
     0.15970E+04
     0.14893E+04
     0.14890E+04
     0.15448E+04
     0.15650E+04
     0.15603E+04
     0.15500E+04
     0.15417E+04
     0.15320E+04
     0.15298E+04
     0.15372E+04
     0.15375E+04
     0.15362E+04
     0.15456E+04
     0.15483E+04
     0.15448E+04
     0.17254E+04
     0.17278E+04
     0.16940E+04
     0.16439E+04
     0.16832E+04
     0.17241E+04
     0.17365E+04
     0.17349E+04
     0.17265E+04
     0.17202E+04
     0.17157E+04
     0.17135E+04
     0.17153E+04
     0.17144E+04
     0.17081E+04
     0.17043E+04
     0.17029E+04
     0.17032E+04
     0.18847E+04
     0.18820E+04
     0.18597E+04
     0.18389E+04
     0.18616E+04
     0.18757E+04
     0.18787E+04
     0.18796E+04
     0.18763E+04
     0.18749E+04
     0.18770E+04
     0.18803E+04
     0.18862E+04
     0.18908E+04
     0.18904E+04
     0.18899E+04
     0.18896E+04
     0.18883E+04
     0.20576E+04
     0.20556E+04
     0.20444E+04
     0.20361E+04
     0.20398E+04
     0.20420E+04
     0.20420E+04
     0.20428E+04
     0.20420E+04
     0.20408E+04
     0.20406E+04
     0.20403E+04
     0.20400E+04
     0.20401E+04
     0.20391E+04
     0.20380E+04
     0.20370E+04
     0.20350E+04
     0.21937E+04
     0.21973E+04
     0.21966E+04
     0.21952E+04
     0.21956E+04
     0.21961E+04
     0.21970E+04
     0.21979E+04
     0.21981E+04
     0.21969E+04
     0.21966E+04
     0.21964E+04
     0.21959E+04
     0.21955E+04
     0.21943E+04
     0.21921E+04
     0.21891E+04
     0.21855E+04
     0.22806E+04
     0.23016E+04
     0.23129E+04
     0.23158E+04
     0.23165E+04
     0.23164E+04
     0.23146E+04
     0.23127E+04
     0.23123E+04
     0.23104E+04
     0.23097E+04
     0.23100E+04
     0.23091E+04
     0.23070E+04
     0.23035E+04
     0.22982E+04
     0.22923E+04
     0.22872E+04
    -0.51854E+02
    -0.59006E+02
    -0.65911E+02
    -0.64897E+02
    -0.60743E+02
    -0.59021E+02
    -0.56124E+02
    -0.65310E+02
    -0.68326E+02
    -0.61028E+02
    -0.53925E+02
    -0.66372E+02
    -0.72463E+02
    -0.76387E+02
    -0.79087E+02
    -0.80792E+02
    -0.84077E+02
    -0.83631E+02
    -0.63432E+02
    -0.64736E+02
    -0.66841E+02
    -0.64210E+02
    -0.64056E+02
    -0.66231E+02
    -0.67776E+02
    -0.65158E+02
    -0.67546E+02
    -0.67795E+02
    -0.63793E+02
    -0.65605E+02
    -0.69791E+02
    -0.71113E+02
    -0.73331E+02
    -0.76270E+02
    -0.76423E+02
    -0.78343E+02
    -0.70036E+02
    -0.70349E+02
    -0.71616E+02
    -0.70161E+02
    -0.71139E+02
    -0.73289E+02
    -0.75235E+02
    -0.71785E+02
    -0.74394E+02
    -0.76042E+02
    -0.73962E+02
    -0.75394E+02
    -0.78908E+02
    -0.77749E+02
    -0.78119E+02
    -0.79774E+02
    -0.78851E+02
    -0.80308E+02
    -0.72890E+02
    -0.72763E+02
    -0.76081E+02
    -0.76748E+02
    -0.74387E+02
    -0.75759E+02
    -0.78365E+02
    -0.76186E+02
    -0.75659E+02
    -0.78679E+02
    -0.80391E+02
    -0.79058E+02
    -0.81731E+02
    -0.81294E+02
    -0.79948E+02
    -0.82287E+02
    -0.81812E+02
    -0.81495E+02
    -0.79602E+02
    -0.76268E+02
    -0.78226E+02
    -0.80069E+02
    -0.79260E+02
    -0.79536E+02
    -0.79014E+02
    -0.78550E+02
    -0.79828E+02
    -0.81956E+02
    -0.85718E+02
    -0.85200E+02
    -0.86377E+02
    -0.86098E+02
    -0.85285E+02
    -0.87450E+02
    -0.87093E+02
    -0.85947E+02
    -0.89547E+02
    -0.90693E+02
    -0.89928E+02
    -0.92697E+02
    -0.10003E+03
    -0.95457E+02
    -0.90551E+02
    -0.99396E+02
    -0.98118E+02
    -0.94646E+02
    -0.10395E+03
    -0.10153E+03
    -0.10058E+03
    -0.10003E+03
    -0.95482E+02
    -0.96096E+02
    -0.91958E+02
    -0.91926E+02
    -0.95767E+02
    -0.11384E+03
    -0.12311E+03
    -0.11186E+03
    -0.12478E+03
    -0.12800E+03
    -0.11984E+03
    -0.13385E+03
    -0.12578E+03
    -0.12759E+03
    -0.14100E+03
    -0.12721E+03
    -0.14132E+03
    -0.13236E+03
    -0.11738E+03
    -0.12155E+03
    -0.10960E+03
    -0.11955E+03
    -0.80920E+02
    -0.10302E+03
    -0.11264E+03
    -0.10504E+03
    -0.14284E+03
    -0.14298E+03
    -0.12369E+03
    -0.15301E+03
    -0.14114E+03
    -0.14571E+03
    -0.16240E+03
    -0.13513E+03
    -0.15847E+03
    -0.15722E+03
    -0.14451E+03
    -0.15834E+03
    -0.14626E+03
    -0.15159E+03
    -0.11027E+02
    -0.41404E+02
    -0.42881E+02
    -0.39021E+02
    -0.80547E+02
    -0.79289E+02
    -0.80361E+02
    -0.11153E+03
    -0.10229E+03
    -0.12669E+03
    -0.13551E+03
    -0.11409E+03
    -0.15383E+03
    -0.15199E+03
    -0.16517E+03
    -0.17599E+03
    -0.15115E+03
    -0.16877E+03
     0.95506E+02
     0.64751E+02
     0.63540E+02
     0.53180E+02
     0.11896E+02
     0.68342E+01
    -0.22808E+02
    -0.37771E+02
    -0.24985E+02
    -0.56938E+02
    -0.58044E+02
    -0.47074E+02
    -0.79088E+02
    -0.70690E+02
    -0.92426E+02
    -0.11594E+03
    -0.92529E+02
    -0.12457E+03
     0.20174E+03
     0.16636E+03
     0.16825E+03
     0.15320E+03
     0.12693E+03
     0.11824E+03
     0.91687E+02
     0.87992E+02
     0.91993E+02
     0.59440E+02
     0.54220E+02
     0.51374E+02
     0.23671E+02
     0.25831E+02
    -0.23233E+01
    -0.26746E+02
    -0.15967E+02
    -0.50620E+02
     0.31200E+03
     0.27998E+03
     0.29177E+03
     0.27731E+03
     0.25790E+03
     0.24595E+03
     0.21580E+03
     0.20877E+03
     0.20937E+03
     0.17818E+03
     0.16870E+03
     0.16663E+03
     0.14677E+03
     0.14329E+03
     0.11834E+03
     0.98652E+02
     0.11105E+03
     0.65754E+02
     0.43686E+03
     0.42057E+03
     0.42040E+03
     0.40650E+03
     0.38006E+03
     0.37009E+03
     0.35536E+03
     0.34501E+03
     0.33944E+03
     0.31499E+03
     0.30462E+03
     0.30753E+03
     0.29297E+03
     0.28554E+03
     0.27379E+03
     0.25089E+03
     0.24678E+03
     0.20829E+03
     0.56572E+03
     0.55206E+03
     0.53205E+03
     0.52959E+03
     0.51911E+03
     0.50579E+03
     0.50177E+03
     0.48860E+03
     0.47232E+03
     0.46664E+03
     0.45799E+03
     0.44553E+03
     0.44300E+03
     0.44854E+03
     0.43443E+03
     0.41324E+03
     0.40424E+03
     0.35869E+03
     0.67773E+03
     0.67415E+03
     0.66206E+03
     0.65810E+03
     0.67214E+03
     0.65193E+03
     0.63364E+03
     0.63867E+03
     0.62262E+03
     0.60813E+03
     0.60609E+03
     0.59016E+03
     0.59149E+03
     0.60713E+03
     0.59407E+03
     0.58727E+03
     0.58043E+03
     0.51112E+03
     0.81203E+03
     0.80133E+03
     0.80661E+03
     0.78694E+03
     0.79679E+03
     0.79507E+03
     0.78267E+03
     0.78923E+03
     0.77369E+03
     0.75589E+03
     0.75396E+03
     0.74564E+03
     0.73935E+03
     0.74089E+03
     0.74997E+03
     0.75696E+03
     0.72903E+03
     0.66855E+03
     0.96353E+03
     0.93569E+03
     0.94249E+03
     0.93505E+03
     0.95110E+03
     0.94018E+03
     0.92219E+03
     0.93189E+03
     0.92729E+03
     0.91884E+03
     0.91024E+03
     0.89898E+03
     0.89092E+03
     0.87930E+03
     0.90349E+03
     0.92875E+03
     0.90170E+03
     0.84680E+03
     0.10891E+04
     0.10844E+04
     0.10984E+04
     0.10815E+04
     0.10855E+04
     0.10835E+04
     0.10743E+04
     0.10863E+04
     0.10893E+04
     0.10721E+04
     0.10565E+04
     0.10573E+04
     0.10376E+04
     0.10240E+04
     0.10742E+04
     0.11216E+04
     0.10875E+04
     0.10434E+04
     0.12264E+04
     0.12323E+04
     0.12405E+04
     0.12278E+04
     0.12332E+04
     0.12449E+04
     0.12372E+04
     0.12380E+04
     0.12342E+04
     0.12126E+04
     0.12139E+04
     0.12187E+04
     0.11880E+04
     0.11552E+04
     0.12259E+04
     0.13126E+04
     0.12768E+04
     0.12308E+04
     0.13829E+04
     0.13858E+04
     0.13823E+04
     0.13767E+04
     0.13955E+04
     0.14090E+04
     0.13818E+04
     0.13660E+04
     0.13752E+04
     0.13776E+04
     0.13861E+04
     0.13917E+04
     0.13583E+04
     0.13001E+04
     0.13615E+04
     0.14937E+04
     0.14537E+04
     0.14082E+04
     0.15461E+04
     0.15494E+04
     0.15456E+04
     0.15362E+04
     0.15386E+04
     0.15377E+04
     0.15301E+04
     0.15341E+04
     0.15451E+04
     0.15544E+04
     0.15638E+04
     0.15673E+04
     0.15447E+04
     0.14891E+04
     0.14970E+04
     0.16019E+04
     0.15993E+04
     0.15722E+04
     0.17064E+04
     0.17054E+04
     0.17058E+04
     0.17089E+04
     0.17149E+04
     0.17154E+04
     0.17137E+04
     0.17178E+04
     0.17244E+04
     0.17332E+04
     0.17411E+04
     0.17399E+04
     0.17251E+04
     0.16782E+04
     0.16439E+04
     0.17018E+04
     0.17307E+04
     0.17272E+04
     0.18926E+04
     0.18930E+04
     0.18924E+04
     0.18928E+04
     0.18922E+04
     0.18860E+04
     0.18791E+04
     0.18766E+04
     0.18764E+04
     0.18798E+04
     0.18827E+04
     0.18802E+04
     0.18756E+04
     0.18562E+04
     0.18404E+04
     0.18654E+04
     0.18856E+04
     0.18871E+04
     0.20360E+04
     0.20378E+04
     0.20393E+04
     0.20410E+04
     0.20415E+04
     0.20405E+04
     0.20403E+04
     0.20411E+04
     0.20419E+04
     0.20433E+04
     0.20436E+04
     0.20419E+04
     0.20415E+04
     0.20386E+04
     0.20384E+04
     0.20484E+04
     0.20593E+04
     0.20610E+04
     0.21859E+04
     0.21892E+04
     0.21928E+04
     0.21955E+04
     0.21960E+04
     0.21957E+04
     0.21960E+04
     0.21961E+04
     0.21962E+04
     0.21970E+04
     0.21969E+04
     0.21957E+04
     0.21953E+04
     0.21956E+04
     0.21957E+04
     0.21978E+04
     0.21991E+04
     0.21951E+04
     0.22883E+04
     0.22930E+04
     0.22989E+04
     0.23044E+04
     0.23071E+04
     0.23084E+04
     0.23091E+04
     0.23085E+04
     0.23083E+04
     0.23098E+04
     0.23115E+04
     0.23140E+04
     0.23155E+04
     0.23160E+04
     0.23146E+04
     0.23113E+04
     0.23011E+04
     0.22797E+04
    -0.32900E+02
    -0.34329E+02
    -0.45814E+02
    -0.34302E+02
    -0.36639E+02
    -0.44749E+02
    -0.75489E+02
    -0.71816E+02
    -0.72484E+02
    -0.75183E+02
    -0.72650E+02
    -0.73257E+02
    -0.70517E+02
    -0.72860E+02
    -0.73924E+02
    -0.69641E+02
    -0.70749E+02
    -0.74403E+02
    -0.71484E+02
    -0.72513E+02
    -0.68874E+02
    -0.72012E+02
    -0.66715E+02
    -0.67452E+02
    -0.57332E+02
    -0.49848E+02
    -0.57481E+02
    -0.66095E+02
    -0.57507E+02
    -0.57475E+02
    -0.32993E+02
    -0.50234E+02
    -0.48449E+02
    -0.50847E+02
    -0.47426E+02
    -0.58913E+02
    -0.53365E+02
    -0.58824E+02
    -0.50889E+02
    -0.53689E+02
    -0.45277E+02
    -0.42550E+02
    -0.36383E+02
    -0.33905E+02
    -0.40507E+02
    -0.54888E+02
    -0.54322E+02
    -0.59314E+02
    -0.46294E+02
    -0.43527E+02
    -0.29544E+02
    -0.30974E+02
    -0.46597E+02
    -0.60729E+02
    -0.51787E+02
    -0.59398E+02
    -0.48246E+02
    -0.51581E+02
    -0.41511E+02
    -0.40542E+02
    -0.33754E+02
    -0.31852E+02
    -0.39436E+02
    -0.56354E+02
    -0.53902E+02
    -0.59810E+02
    -0.43063E+02
    -0.40863E+02
    -0.25981E+02
    -0.30086E+02
    -0.60185E+02
    -0.54395E+02
    -0.47890E+02
    -0.45744E+02
    -0.42961E+02
    -0.42423E+02
    -0.40452E+02
    -0.39948E+02
    -0.38430E+02
    -0.37973E+02
    -0.36270E+02
    -0.35744E+02
    -0.34172E+02
    -0.33988E+02
    -0.32685E+02
    -0.33591E+02
    -0.32964E+02
    -0.34008E+02
    -0.33563E+02
    -0.35221E+02
    -0.35665E+02
    -0.37532E+02
    -0.37786E+02
    -0.39344E+02
    -0.40028E+02
    -0.41705E+02
    -0.41890E+02
    -0.44028E+02
    -0.45716E+02
    -0.51754E+02
    -0.32469E+02
    -0.31127E+02
    -0.57516E+02
    -0.55936E+02
    -0.61554E+02
    -0.61825E+02
    -0.56490E+02
    -0.60330E+02
    -0.56321E+02
    -0.54712E+02
    -0.53010E+02
    -0.44525E+02
    -0.45457E+02
    -0.38203E+02
    -0.34855E+02
    -0.59416E+02
    -0.53696E+02
    -0.60195E+02
    -0.54812E+02
    -0.56948E+02
    -0.53332E+02
    -0.43699E+02
    -0.47280E+02
    -0.30450E+02
    -0.34567E+02
    -0.32971E+02
    -0.29822E+02
    -0.35007E+02
    -0.38044E+02
    -0.42051E+02
    -0.38388E+02
    -0.41539E+02
    -0.40048E+02
    -0.40100E+02
    -0.39894E+02
    -0.39241E+02
    -0.39895E+02
    -0.41248E+02
    -0.40308E+02
    -0.41751E+02
    -0.40875E+02
    -0.36336E+02
    -0.38247E+02
    -0.27794E+02
    -0.31780E+02
    -0.36976E+02
    -0.40513E+02
    -0.44938E+02
    -0.40640E+02
    -0.44663E+02
    -0.42544E+02
    -0.43670E+02
    -0.43234E+02
    -0.41678E+02
    -0.42527E+02
    -0.43090E+02
    -0.42285E+02
    -0.44583E+02
    -0.43074E+02
    -0.40831E+02
    -0.41969E+02
    -0.30904E+02
    -0.35458E+02
    -0.44840E+02
    -0.47135E+02
    -0.41611E+02
    -0.42829E+02
    -0.39776E+02
    -0.40630E+02
    -0.37266E+02
    -0.38538E+02
    -0.34995E+02
    -0.35979E+02
    -0.33018E+02
    -0.33698E+02
    -0.32117E+02
    -0.32381E+02
    -0.32199E+02
    -0.31845E+02
    -0.33583E+02
    -0.32734E+02
    -0.35659E+02
    -0.34217E+02
    -0.37893E+02
    -0.36567E+02
    -0.40026E+02
    -0.38841E+02
    -0.42606E+02
    -0.41200E+02
    -0.46625E+02
    -0.44200E+02
    -0.48930E+02
    -0.29651E+02
    -0.29706E+02
    -0.30651E+02
    -0.28591E+02
    -0.33677E+02
    -0.31261E+02
    -0.32152E+02
    -0.30203E+02
    -0.49535E+02
    -0.47292E+02
    -0.35293E+02
    -0.32193E+02
    -0.36393E+02
    -0.37047E+02
    -0.33910E+02
    -0.38760E+02
    -0.48803E+02
    -0.47130E+02
    -0.45251E+02
    -0.44853E+02
    -0.38319E+02
    -0.39842E+02
    -0.32229E+02
    -0.33763E+02
    -0.46070E+02
    -0.48241E+02
    -0.45574E+02
    -0.45194E+02
    -0.40274E+02
    -0.41294E+02
    -0.33600E+02
    -0.35969E+02
    -0.29694E+02
    -0.31081E+02
    -0.40424E+02
    -0.37889E+02
    -0.40836E+02
    -0.39405E+02
    -0.41030E+02
    -0.39898E+02
    -0.40500E+02
    -0.37638E+02
    -0.35534E+02